<?xml version='1.0'?>
<VTKFile type='PolyData' version='0.1' byte_order='LittleEndian'><PolyData>
<Piece NumberOfPoints='726' NumberOfVerts='0' NumberOfLines='0' NumberOfStrips='0' NumberOfPolys='242'>
<Points>
<DataArray type='Float32' NumberOfComponents='3' format='ascii'>
0.704500 0.483700 0.000000 0.753500 0.398700 0.000000 0.816800 0.490000 0.000000 0.300000 0.307200 0.000000 0.250600 0.388400 0.000000 0.189100 0.294100 0.000000 0.910400 0.758700 0.000000 0.916800 0.850900 0.000000 0.815000 0.818300 0.000000 0.086600 0.250000 0.000000 0.083000 0.149900 0.000000 0.185600 0.179400 0.000000 0.086600 0.250000 0.000000 0.185600 0.179400 0.000000 0.189100 0.294100 0.000000 0.910400 0.758700 0.000000 0.815000 0.818300 0.000000 0.832600 0.730100 0.000000 0.163000 0.380400 0.000000 0.189100 0.294100 0.000000 0.250600 0.388400 0.000000 0.913400 0.350000 0.000000 0.811000 0.304800 0.000000 0.913200 0.250900 0.000000 0.086600 0.250000 0.000000 0.189100 0.294100 0.000000 0.079700 0.349400 0.000000 0.092400 0.460600 0.000000 0.200800 0.473800 0.000000 0.147500 0.559500 0.000000 0.090600 0.840800 0.000000 0.149500 0.743000 0.000000 0.199400 0.829700 0.000000 0.163000 0.380400 0.000000 0.079700 0.349400 0.000000 0.189100 0.294100 0.000000 0.753500 0.398700 0.000000 0.840700 0.399300 0.000000 0.816800 0.490000 0.000000 0.811000 0.304800 0.000000 0.838100 0.200000 0.000000 0.913200 0.250900 0.000000 0.704500 0.483700 0.000000 0.816800 0.490000 0.000000 0.751600 0.570100 0.000000 0.092400 0.460600 0.000000 0.147500 0.559500 0.000000 0.065300 0.550000 0.000000 0.090600 0.840800 0.000000 0.065800 0.747000 0.000000 0.149500 0.743000 0.000000 0.088900 0.650900 0.000000 0.196700 0.652200 0.000000 0.149500 0.743000 0.000000 0.088900 0.650900 0.000000 0.147500 0.559500 0.000000 0.196700 0.652200 0.000000 0.913400 0.350000 0.000000 0.840700 0.399300 0.000000 0.811000 0.304800 0.000000 0.092400 0.460600 0.000000 0.163000 0.380400 0.000000 0.200800 0.473800 0.000000 0.849600 0.915300 0.000000 0.815000 0.818300 0.000000 0.916800 0.850900 0.000000 0.150400 0.084700 0.000000 0.185600 0.179400 0.000000 0.083000 0.149900 0.000000 0.800000 0.653600 0.000000 0.899400 0.652900 0.000000 0.832600 0.730100 0.000000 0.090600 0.840800 0.000000 0.199400 0.829700 0.000000 0.153100 0.917900 0.000000 0.917100 0.150600 0.000000 0.838100 0.200000 0.000000 0.844100 0.093900 0.000000 0.811000 0.304800 0.000000 0.748800 0.221600 0.000000 0.838100 0.200000 0.000000 0.347500 0.081900 0.000000 0.397700 0.155400 0.000000 0.289800 0.163400 0.000000 0.249900 0.739900 0.000000 0.299100 0.652700 0.000000 0.350000 0.740200 0.000000 0.300000 0.480400 0.000000 0.350600 0.566100 0.000000 0.246100 0.564800 0.000000 0.800000 0.653600 0.000000 0.836600 0.582700 0.000000 0.899400 0.652900 0.000000 0.300000 0.480400 0.000000 0.246100 0.564800 0.000000 0.200800 0.473800 0.000000 0.910400 0.758700 0.000000 0.832600 0.730100 0.000000 0.899400 0.652900 0.000000 0.246100 0.564800 0.000000 0.350600 0.566100 0.000000 0.299100 0.652700 0.000000 0.400200 0.653100 0.000000 0.350000 0.740200 0.000000 0.299100 0.652700 0.000000 0.249900 0.739900 0.000000 0.196700 0.652200 0.000000 0.299100 0.652700 0.000000 0.196700 0.652200 0.000000 0.147500 0.559500 0.000000 0.246100 0.564800 0.000000 0.844100 0.093900 0.000000 0.838100 0.200000 0.000000 0.775400 0.149700 0.000000 0.088900 0.650900 0.000000 0.149500 0.743000 0.000000 0.065800 0.747000 0.000000 0.300000 0.480400 0.000000 0.200800 0.473800 0.000000 0.250600 0.388400 0.000000 0.349200 0.228800 0.000000 0.289800 0.163400 0.000000 0.397700 0.155400 0.000000 0.300000 0.307200 0.000000 0.189100 0.294100 0.000000 0.261400 0.236000 0.000000 0.147500 0.559500 0.000000 0.200800 0.473800 0.000000 0.246100 0.564800 0.000000 0.196700 0.652200 0.000000 0.246100 0.564800 0.000000 0.299100 0.652700 0.000000 0.450000 0.913400 0.000000 0.350100 0.913500 0.000000 0.400000 0.826800 0.000000 0.350100 0.913500 0.000000 0.300200 0.826900 0.000000 0.400000 0.826800 0.000000 0.400000 1.000000 0.000000 0.350100 0.913500 0.000000 0.450000 0.913400 0.000000 0.500000 1.000000 0.000000 0.400000 1.000000 0.000000 0.450000 0.913400 0.000000 -0.000000 0.500000 0.000000 -0.000000 0.400000 0.000000 0.092400 0.460600 0.000000 0.650000 0.913400 0.000000 0.550000 0.913400 0.000000 0.600000 0.826800 0.000000 0.300200 0.826900 0.000000 0.249900 0.739900 0.000000 0.350000 0.740200 0.000000 1.000000 0.600000 0.000000 0.899400 0.652900 0.000000 0.915200 0.546800 0.000000 0.600000 1.000000 0.000000 0.550000 0.913400 0.000000 0.650000 0.913400 0.000000 0.400000 0.826800 0.000000 0.300200 0.826900 0.000000 0.350000 0.740200 0.000000 0.600000 -0.000000 0.000000 0.650000 0.086600 0.000000 0.550000 0.086600 0.000000 0.500000 1.000000 0.000000 0.450000 0.913400 0.000000 0.550000 0.913400 0.000000 0.300000 1.000000 0.000000 0.250800 0.913900 0.000000 0.350100 0.913500 0.000000 1.000000 0.500000 0.000000 1.000000 0.600000 0.000000 0.915200 0.546800 0.000000 0.500000 0.000000 0.000000 0.600000 -0.000000 0.000000 0.550000 0.086600 0.000000 0.450000 0.913400 0.000000 0.400000 0.826800 0.000000 0.500000 0.826800 0.000000 0.400000 1.000000 0.000000 0.300000 1.000000 0.000000 0.350100 0.913500 0.000000 0.250800 0.913900 0.000000 0.300200 0.826900 0.000000 0.350100 0.913500 0.000000 0.600000 1.000000 0.000000 0.500000 1.000000 0.000000 0.550000 0.913400 0.000000 1.000000 0.500000 0.000000 0.915200 0.546800 0.000000 0.915800 0.449500 0.000000 0.400000 -0.000000 0.000000 0.449800 0.083900 0.000000 0.347500 0.081900 0.000000 0.500000 -0.000000 0.000000 0.550000 0.086600 0.000000 0.449800 0.083900 0.000000 0.300200 0.826900 0.000000 0.199400 0.829700 0.000000 0.249900 0.739900 0.000000 1.000000 0.400000 0.000000 0.915800 0.449500 0.000000 0.913400 0.350000 0.000000 1.000000 0.700000 0.000000 0.910400 0.758700 0.000000 0.899400 0.652900 0.000000 0.450000 0.913400 0.000000 0.500000 0.826800 0.000000 0.550000 0.913400 0.000000 0.199400 0.829700 0.000000 0.149500 0.743000 0.000000 0.249900 0.739900 0.000000 0.650000 0.913400 0.000000 0.600000 0.826800 0.000000 0.699400 0.826600 0.000000 0.400000 -0.000000 0.000000 0.500000 -0.000000 0.000000 0.449800 0.083900 0.000000 0.700000 -0.000000 0.000000 0.746000 0.079600 0.000000 0.650000 0.086600 0.000000 1.000000 0.400000 0.000000 1.000000 0.500000 0.000000 0.915800 0.449500 0.000000 1.000000 0.600000 0.000000 1.000000 0.700000 0.000000 0.899400 0.652900 0.000000 0.249900 0.739900 0.000000 0.149500 0.743000 0.000000 0.196700 0.652200 0.000000 0.500000 0.826800 0.000000 0.600000 0.826800 0.000000 0.550000 0.913400 0.000000 0.600000 0.000000 0.000000 0.700000 -0.000000 0.000000 0.650000 0.086600 0.000000 0.300000 1.000000 0.000000 0.200000 1.000000 0.000000 0.250800 0.913900 0.000000 0.250800 0.913900 0.000000 0.199400 0.829700 0.000000 0.300200 0.826900 0.000000 0.749900 0.913700 0.000000 0.699400 0.826600 0.000000 0.815000 0.818300 0.000000 0.400000 0.826800 0.000000 0.350000 0.740200 0.000000 0.450000 0.740200 0.000000 1.000000 0.700000 0.000000 1.000000 0.800000 0.000000 0.910400 0.758700 0.000000 0.450000 0.740200 0.000000 0.350000 0.740200 0.000000 0.400200 0.653100 0.000000 0.000000 0.300000 0.000000 0.000000 0.200000 0.000000 0.086600 0.250000 0.000000 0.915200 0.546800 0.000000 0.816800 0.490000 0.000000 0.915800 0.449500 0.000000 0.650000 0.913400 0.000000 0.699400 0.826600 0.000000 0.749900 0.913700 0.000000 0.700000 -0.000000 0.000000 0.800000 -0.000000 0.000000 0.746000 0.079600 0.000000 0.400000 0.826800 0.000000 0.450000 0.740200 0.000000 0.500000 0.826800 0.000000 0.900000 1.000000 0.000000 0.800000 1.000000 0.000000 0.849600 0.915300 0.000000 0.300000 -0.000000 0.000000 0.400000 -0.000000 0.000000 0.347500 0.081900 0.000000 0.400400 0.480100 0.000000 0.300000 0.480400 0.000000 0.351000 0.394300 0.000000 0.000000 0.900000 0.000000 -0.000000 0.800000 0.000000 0.090600 0.840800 0.000000 1.000000 0.300000 0.000000 1.000000 0.400000 0.000000 0.913400 0.350000 0.000000 0.450000 0.740200 0.000000 0.400200 0.653100 0.000000 0.500000 0.653600 0.000000 0.450300 0.566700 0.000000 0.400400 0.480100 0.000000 0.500100 0.480300 0.000000 0.300000 0.000000 0.000000 0.347500 0.081900 0.000000 0.247200 0.084100 0.000000 0.700300 0.654100 0.000000 0.747100 0.738600 0.000000 0.649600 0.740000 0.000000 0.000000 0.700000 0.000000 0.000000 0.600000 0.000000 0.088900 0.650900 0.000000 0.500100 0.480300 0.000000 0.400400 0.480100 0.000000 0.450100 0.393700 0.000000 0.450100 0.393700 0.000000 0.400200 0.307300 0.000000 0.500000 0.307200 0.000000 1.000000 0.300000 0.000000 0.913400 0.350000 0.000000 0.913200 0.250900 0.000000 0.550100 0.566900 0.000000 0.600000 0.480400 0.000000 0.650000 0.567000 0.000000 0.700000 1.000000 0.000000 0.600000 1.000000 0.000000 0.650000 0.913400 0.000000 0.700300 0.654100 0.000000 0.800000 0.653600 0.000000 0.747100 0.738600 0.000000 1.000000 0.200000 0.000000 1.000000 0.300000 0.000000 0.913200 0.250900 0.000000 0.650000 0.567000 0.000000 0.704500 0.483700 0.000000 0.751600 0.570100 0.000000 0.650000 0.567000 0.000000 0.751600 0.570100 0.000000 0.700300 0.654100 0.000000 0.500000 0.653600 0.000000 0.400200 0.653100 0.000000 0.450300 0.566700 0.000000 0.200000 0.000000 0.000000 0.300000 0.000000 0.000000 0.247200 0.084100 0.000000 0.600000 0.480400 0.000000 0.704500 0.483700 0.000000 0.650000 0.567000 0.000000 0.450300 0.566700 0.000000 0.500100 0.480300 0.000000 0.550100 0.566900 0.000000 0.550100 0.566900 0.000000 0.500100 0.480300 0.000000 0.600000 0.480400 0.000000 0.400200 0.307300 0.000000 0.450000 0.220600 0.000000 0.500000 0.307200 0.000000 0.650000 0.567000 0.000000 0.700300 0.654100 0.000000 0.600100 0.653700 0.000000 0.500000 0.653600 0.000000 0.450300 0.566700 0.000000 0.550100 0.566900 0.000000 0.500000 0.307200 0.000000 0.450000 0.220600 0.000000 0.550000 0.220600 0.000000 0.500000 0.826800 0.000000 0.550000 0.740200 0.000000 0.600000 0.826800 0.000000 0.500000 0.653600 0.000000 0.550100 0.566900 0.000000 0.600100 0.653700 0.000000 0.550100 0.566900 0.000000 0.650000 0.567000 0.000000 0.600100 0.653700 0.000000 1.000000 0.100000 0.000000 1.000000 0.200000 0.000000 0.917100 0.150600 0.000000 0.400200 0.307300 0.000000 0.349200 0.228800 0.000000 0.450000 0.220600 0.000000 0.550000 0.740200 0.000000 0.649600 0.740000 0.000000 0.600000 0.826800 0.000000 0.704500 0.483700 0.000000 0.650700 0.394300 0.000000 0.753500 0.398700 0.000000 0.450100 0.393700 0.000000 0.351000 0.394300 0.000000 0.400200 0.307300 0.000000 0.753500 0.398700 0.000000 0.700000 0.307200 0.000000 0.811000 0.304800 0.000000 0.500100 0.480300 0.000000 0.450100 0.393700 0.000000 0.550200 0.393900 0.000000 0.450000 0.740200 0.000000 0.500000 0.653600 0.000000 0.550000 0.740200 0.000000 0.100000 0.000000 0.000000 0.200000 0.000000 0.000000 0.150400 0.084700 0.000000 0.600000 0.480400 0.000000 0.650700 0.394300 0.000000 0.704500 0.483700 0.000000 0.500100 0.480300 0.000000 0.550200 0.393900 0.000000 0.600000 0.480400 0.000000 0.500000 0.826800 0.000000 0.450000 0.740200 0.000000 0.550000 0.740200 0.000000 0.550000 0.740200 0.000000 0.500000 0.653600 0.000000 0.600100 0.653700 0.000000 0.800000 1.000000 0.000000 0.749900 0.913700 0.000000 0.849600 0.915300 0.000000 0.400400 0.480100 0.000000 0.351000 0.394300 0.000000 0.450100 0.393700 0.000000 0.800000 1.000000 0.000000 0.700000 1.000000 0.000000 0.749900 0.913700 0.000000 1.000000 0.200000 0.000000 0.913200 0.250900 0.000000 0.917100 0.150600 0.000000 0.450100 0.393700 0.000000 0.500000 0.307200 0.000000 0.550200 0.393900 0.000000 0.550000 0.740200 0.000000 0.600100 0.653700 0.000000 0.649600 0.740000 0.000000 0.751600 0.570100 0.000000 0.800000 0.653600 0.000000 0.700300 0.654100 0.000000 0.650700 0.394300 0.000000 0.700000 0.307200 0.000000 0.753500 0.398700 0.000000 0.600000 0.480400 0.000000 0.550200 0.393900 0.000000 0.650700 0.394300 0.000000 0.400200 0.307300 0.000000 0.300000 0.307200 0.000000 0.349200 0.228800 0.000000 0.200000 0.000000 0.000000 0.247200 0.084100 0.000000 0.150400 0.084700 0.000000 0.700000 0.307200 0.000000 0.748800 0.221600 0.000000 0.811000 0.304800 0.000000 0.700000 1.000000 0.000000 0.650000 0.913400 0.000000 0.749900 0.913700 0.000000 0.351000 0.394300 0.000000 0.300000 0.307200 0.000000 0.400200 0.307300 0.000000 0.747100 0.738600 0.000000 0.699400 0.826600 0.000000 0.649600 0.740000 0.000000 0.150400 0.084700 0.000000 0.247200 0.084100 0.000000 0.185600 0.179400 0.000000 0.700300 0.654100 0.000000 0.649600 0.740000 0.000000 0.600100 0.653700 0.000000 0.600000 0.826800 0.000000 0.649600 0.740000 0.000000 0.699400 0.826600 0.000000 0.500000 0.307200 0.000000 0.600200 0.307300 0.000000 0.550200 0.393900 0.000000 0.650700 0.394300 0.000000 0.550200 0.393900 0.000000 0.600200 0.307300 0.000000 0.747100 0.738600 0.000000 0.815000 0.818300 0.000000 0.699400 0.826600 0.000000 0.500000 0.307200 0.000000 0.550000 0.220600 0.000000 0.600200 0.307300 0.000000 0.550000 0.220600 0.000000 0.650000 0.220600 0.000000 0.600200 0.307300 0.000000 0.650700 0.394300 0.000000 0.600200 0.307300 0.000000 0.700000 0.307200 0.000000 0.700000 0.307200 0.000000 0.600200 0.307300 0.000000 0.650000 0.220600 0.000000 0.849600 0.915300 0.000000 0.749900 0.913700 0.000000 0.815000 0.818300 0.000000 0.700000 0.307200 0.000000 0.650000 0.220600 0.000000 0.748800 0.221600 0.000000 0.200800 0.473800 0.000000 0.163000 0.380400 0.000000 0.250600 0.388400 0.000000 0.400200 0.653100 0.000000 0.299100 0.652700 0.000000 0.350600 0.566100 0.000000 0.400400 0.480100 0.000000 0.350600 0.566100 0.000000 0.300000 0.480400 0.000000 0.400200 0.653100 0.000000 0.350600 0.566100 0.000000 0.450300 0.566700 0.000000 0.092400 0.460600 0.000000 0.079700 0.349400 0.000000 0.163000 0.380400 0.000000 0.450300 0.566700 0.000000 0.350600 0.566100 0.000000 0.400400 0.480100 0.000000 0.250800 0.913900 0.000000 0.153100 0.917900 0.000000 0.199400 0.829700 0.000000 0.200000 1.000000 0.000000 0.100000 1.000000 0.000000 0.153100 0.917900 0.000000 1.000000 0.800000 0.000000 1.000000 0.900000 0.000000 0.916800 0.850900 0.000000 0.000000 0.200000 0.000000 -0.000000 0.100000 0.000000 0.083000 0.149900 0.000000 0.800000 -0.000000 0.000000 0.900000 0.000000 0.000000 0.844100 0.093900 0.000000 0.351000 0.394300 0.000000 0.250600 0.388400 0.000000 0.300000 0.307200 0.000000 -0.000000 0.400000 0.000000 0.079700 0.349400 0.000000 0.092400 0.460600 0.000000 -0.000000 0.300000 0.000000 0.086600 0.250000 0.000000 0.079700 0.349400 0.000000 0.088900 0.650900 0.000000 0.065300 0.550000 0.000000 0.147500 0.559500 0.000000 0.915800 0.449500 0.000000 0.816800 0.490000 0.000000 0.840700 0.399300 0.000000 0.753500 0.398700 0.000000 0.811000 0.304800 0.000000 0.840700 0.399300 0.000000 0.200000 1.000000 0.000000 0.153100 0.917900 0.000000 0.250800 0.913900 0.000000 1.000000 0.800000 0.000000 0.916800 0.850900 0.000000 0.910400 0.758700 0.000000 0.000000 0.200000 0.000000 0.083000 0.149900 0.000000 0.086600 0.250000 0.000000 0.800000 -0.000000 0.000000 0.844100 0.093900 0.000000 0.746000 0.079600 0.000000 0.347500 0.081900 0.000000 0.289800 0.163400 0.000000 0.247200 0.084100 0.000000 0.351000 0.394300 0.000000 0.300000 0.480400 0.000000 0.250600 0.388400 0.000000 -0.000000 0.800000 0.000000 0.065800 0.747000 0.000000 0.090600 0.840800 0.000000 -0.000000 0.700000 0.000000 0.088900 0.650900 0.000000 0.065800 0.747000 0.000000 0.747100 0.738600 0.000000 0.832600 0.730100 0.000000 0.815000 0.818300 0.000000 0.000000 0.500000 0.000000 0.092400 0.460600 0.000000 0.065300 0.550000 0.000000 0.000000 0.600000 0.000000 0.065300 0.550000 0.000000 0.088900 0.650900 0.000000 0.915200 0.546800 0.000000 0.899400 0.652900 0.000000 0.836600 0.582700 0.000000 1.000000 1.000000 0.000000 0.900000 1.000000 0.000000 0.926800 0.926800 0.000000 -0.000000 1.000000 0.000000 -0.000000 0.900000 0.000000 0.073200 0.926800 0.000000 1.000000 1.000000 0.000000 0.926800 0.926800 0.000000 1.000000 0.900000 0.000000 1.000000 -0.000000 0.000000 1.000000 0.100000 0.000000 0.926800 0.073200 0.000000 1.000000 -0.000000 0.000000 0.926800 0.073200 0.000000 0.900000 -0.000000 0.000000 0.000000 -0.000000 0.000000 0.100000 -0.000000 0.000000 0.073200 0.073200 0.000000 -0.000000 -0.000000 0.000000 0.073200 0.073200 0.000000 -0.000000 0.100000 0.000000 -0.000000 1.000000 0.000000 0.073200 0.926800 0.000000 0.100000 1.000000 0.000000 0.000000 0.400000 0.000000 -0.000000 0.300000 0.000000 0.079700 0.349400 0.000000 0.917100 0.150600 0.000000 0.913200 0.250900 0.000000 0.838100 0.200000 0.000000 0.185600 0.179400 0.000000 0.261400 0.236000 0.000000 0.189100 0.294100 0.000000 0.913400 0.350000 0.000000 0.915800 0.449500 0.000000 0.840700 0.399300 0.000000 0.300000 0.307200 0.000000 0.261400 0.236000 0.000000 0.349200 0.228800 0.000000 0.751600 0.570100 0.000000 0.816800 0.490000 0.000000 0.836600 0.582700 0.000000 0.247200 0.084100 0.000000 0.289800 0.163400 0.000000 0.185600 0.179400 0.000000 0.751600 0.570100 0.000000 0.836600 0.582700 0.000000 0.800000 0.653600 0.000000 0.650000 0.220600 0.000000 0.600000 0.153600 0.000000 0.700000 0.153600 0.000000 0.347500 0.081900 0.000000 0.449800 0.083900 0.000000 0.397700 0.155400 0.000000 0.550000 0.220600 0.000000 0.500000 0.153600 0.000000 0.600000 0.153600 0.000000 0.450000 0.220600 0.000000 0.500000 0.153600 0.000000 0.550000 0.220600 0.000000 0.550000 0.220600 0.000000 0.600000 0.153600 0.000000 0.650000 0.220600 0.000000 0.748800 0.221600 0.000000 0.650000 0.220600 0.000000 0.700000 0.153600 0.000000 -0.000000 0.800000 0.000000 -0.000000 0.700000 0.000000 0.065800 0.747000 0.000000 0.550000 0.086600 0.000000 0.650000 0.086600 0.000000 0.600000 0.153600 0.000000 0.650000 0.086600 0.000000 0.700000 0.153600 0.000000 0.600000 0.153600 0.000000 0.746000 0.079600 0.000000 0.700000 0.153600 0.000000 0.650000 0.086600 0.000000 0.550000 0.086600 0.000000 0.600000 0.153600 0.000000 0.500000 0.153600 0.000000 0.550000 0.086600 0.000000 0.500000 0.153600 0.000000 0.449800 0.083900 0.000000 0.450000 0.220600 0.000000 0.349200 0.228800 0.000000 0.397700 0.155400 0.000000 0.450000 0.220600 0.000000 0.397700 0.155400 0.000000 0.500000 0.153600 0.000000 0.449800 0.083900 0.000000 0.500000 0.153600 0.000000 0.397700 0.155400 0.000000 0.800000 0.653600 0.000000 0.832600 0.730100 0.000000 0.747100 0.738600 0.000000 0.000000 0.600000 0.000000 0.000000 0.500000 0.000000 0.065300 0.550000 0.000000 0.915200 0.546800 0.000000 0.836600 0.582700 0.000000 0.816800 0.490000 0.000000 0.746000 0.079600 0.000000 0.844100 0.093900 0.000000 0.775400 0.149700 0.000000 0.100000 1.000000 0.000000 0.073200 0.926800 0.000000 0.153100 0.917900 0.000000 -0.000000 0.100000 0.000000 0.073200 0.073200 0.000000 0.083000 0.149900 0.000000 1.000000 0.900000 0.000000 0.926800 0.926800 0.000000 0.916800 0.850900 0.000000 0.900000 -0.000000 0.000000 0.926800 0.073200 0.000000 0.844100 0.093900 0.000000 0.900000 1.000000 0.000000 0.849600 0.915300 0.000000 0.926800 0.926800 0.000000 -0.000000 0.900000 0.000000 0.090600 0.840800 0.000000 0.073200 0.926800 0.000000 1.000000 0.100000 0.000000 0.917100 0.150600 0.000000 0.926800 0.073200 0.000000 0.100000 0.000000 0.000000 0.150400 0.084700 0.000000 0.073200 0.073200 0.000000 0.349200 0.228800 0.000000 0.261400 0.236000 0.000000 0.289800 0.163400 0.000000 0.090600 0.840800 0.000000 0.153100 0.917900 0.000000 0.073200 0.926800 0.000000 0.849600 0.915300 0.000000 0.916800 0.850900 0.000000 0.926800 0.926800 0.000000 0.150400 0.084700 0.000000 0.083000 0.149900 0.000000 0.073200 0.073200 0.000000 0.917100 0.150600 0.000000 0.844100 0.093900 0.000000 0.926800 0.073200 0.000000 0.185600 0.179400 0.000000 0.289800 0.163400 0.000000 0.261400 0.236000 0.000000 0.748800 0.221600 0.000000 0.775400 0.149700 0.000000 0.838100 0.200000 0.000000 0.748800 0.221600 0.000000 0.700000 0.153600 0.000000 0.775400 0.149700 0.000000 0.746000 0.079600 0.000000 0.775400 0.149700 0.000000 0.700000 0.153600 0.000000 
</DataArray>
</Points>
<PointData Vectors='Velocity Force Displacement'>
<DataArray type='Float32' Name='Velocity' NumberOfComponents='3' format='ascii'>