<?xml version='1.0'?>
<VTKFile type='PolyData' version='0.1' byte_order='LittleEndian'><PolyData>
<Piece NumberOfPoints='9000' NumberOfVerts='0' NumberOfLines='0' NumberOfStrips='0' NumberOfPolys='3000'>
<Points>
<DataArray type='Float32' NumberOfComponents='3' format='ascii'>
10.741573 49.054424 0.000000 7.726481 49.680985 0.000000 8.857142 47.559377 0.000000 4.605618 49.839804 0.000000 6.601262 47.173126 0.000000 7.674724 49.586935 0.000000 8.905829 47.431636 0.000000 7.681100 49.500335 0.000000 6.568848 47.104096 0.000000 6.562635 47.106190 0.000000 4.618523 49.810669 0.000000 4.601334 47.233663 0.000000 1.639846 49.925395 0.000000 2.576374 47.063244 0.000000 4.614612 49.793043 0.000000 4.591113 47.217881 0.000000 4.615940 49.794825 0.000000 2.577813 47.064931 0.000000 2.521799 47.047865 0.000000 1.638558 49.926917 0.000000 -0.333356 47.652601 0.000000 -1.646453 49.924707 0.000000 -0.335356 47.650989 0.000000 1.636886 49.924984 0.000000 -0.341215 47.651094 0.000000 -1.647922 49.927299 0.000000 -2.914590 47.845632 0.000000 -4.628771 49.875885 0.000000 -3.010915 47.901882 0.000000 -1.651455 49.924193 0.000000 -3.005808 47.895739 0.000000 -4.650717 49.847256 0.000000 -4.605134 47.877002 0.000000 -7.705370 49.601035 0.000000 -6.145600 47.844275 0.000000 -4.640410 49.900014 0.000000 -4.606175 47.876804 0.000000 -4.660574 49.846834 0.000000 -6.171584 47.795369 0.000000 -6.131212 47.742845 0.000000 -7.698284 49.493094 0.000000 -8.492192 47.260145 0.000000 -10.737154 49.100289 0.000000 -8.447678 47.426585 0.000000 -7.712628 49.679595 0.000000 19.846237 46.588022 0.000000 16.897743 47.476698 0.000000 16.645024 45.798416 0.000000 16.785351 47.456646 0.000000 13.886150 48.494908 0.000000 16.345412 45.817454 0.000000 16.291561 45.607413 0.000000 13.789946 48.245339 0.000000 13.951908 45.175757 0.000000 8.884294 47.464229 0.000000 10.985242 45.646643 0.000000 10.760824 48.968952 0.000000 10.754129 49.046503 0.000000 11.024140 45.727907 0.000000 13.739564 48.291960 0.000000 13.915921 45.135013 0.000000 13.690330 48.200582 0.000000 10.979998 45.631319 0.000000 11.023667 45.596647 0.000000 8.893274 47.379555 0.000000 8.427900 45.800585 0.000000 6.542730 47.098083 0.000000 8.427038 45.799492 0.000000 8.885744 47.380402 0.000000 8.424588 45.800659 0.000000 6.539978 47.098821 0.000000 6.973028 44.975385 0.000000 2.567178 47.064042 0.000000 4.581665 44.901521 0.000000 4.582055 47.194416 0.000000 6.980243 44.940825 0.000000 6.539252 47.062612 0.000000 4.583630 44.921257 0.000000 4.581978 47.216673 0.000000 4.585942 44.923788 0.000000 6.541564 47.065145 0.000000 4.529967 44.929736 0.000000 2.529506 47.105134 0.000000 2.379979 44.972895 0.000000 2.373547 44.921759 0.000000 2.525950 47.053847 0.000000 0.307291 45.069002 0.000000 -0.339257 47.653038 0.000000 0.295496 45.061803 0.000000 2.515293 47.045417 0.000000 0.293007 45.061710 0.000000 -0.339354 47.653539 0.000000 -1.924411 46.112026 0.000000 -2.915179 47.845676 0.000000 -1.927090 46.109868 0.000000 -0.341811 47.651140 0.000000 -6.099757 47.752726 0.000000 -4.486506 45.943309 0.000000 -4.535829 47.858863 0.000000 -1.947466 46.145645 0.000000 -2.935549 47.881462 0.000000 -4.462768 45.897587 0.000000 -4.521462 47.856970 0.000000 -4.484485 45.941139 0.000000 -2.922548 47.897803 0.000000 -8.456116 47.247316 0.000000 -6.818920 46.142513 0.000000 -6.099228 47.749606 0.000000 -4.484853 45.941042 0.000000 -6.099355 47.749342 0.000000 -6.817161 46.141404 0.000000 -6.795796 46.126269 0.000000 -8.438648 47.222644 0.000000 -8.353262 45.383593 0.000000 -13.786956 48.322800 0.000000 -11.074408 45.853465 0.000000 -10.804166 49.088514 0.000000 -8.353298 45.383937 0.000000 -8.442211 47.222820 0.000000 -11.020186 45.689546 0.000000 -10.682511 48.978710 0.000000 -11.083196 45.757216 0.000000 -8.461726 47.214879 0.000000 -11.133814 45.832123 0.000000 -13.828615 48.320813 0.000000 -13.592338 45.904059 0.000000 -19.697119 46.545254 0.000000 -16.017274 45.449599 0.000000 -16.753765 47.450807 0.000000 -16.736312 47.469334 0.000000 -15.864990 45.523042 0.000000 -13.799078 48.394545 0.000000 -13.599107 45.902572 0.000000 -13.833218 48.319536 0.000000 -15.900066 45.448707 0.000000 22.349239 44.970369 0.000000 19.587909 46.333606 0.000000 20.374518 43.776071 0.000000 20.402789 43.615787 0.000000 19.590265 46.165207 0.000000 18.172670 43.706818 0.000000 16.281399 45.666623 0.000000 18.113950 43.683262 0.000000 19.545310 46.133662 0.000000 18.138872 43.656083 0.000000 16.264298 45.599775 0.000000 15.631371 43.234600 0.000000 13.933432 45.128649 0.000000 15.630749 43.237449 0.000000 16.264950 45.602283 0.000000 11.000127 45.626926 0.000000 13.055317 42.967884 0.000000 13.935063 45.124557 0.000000 15.636509 43.229476 0.000000 13.938383 45.119947 0.000000 13.058090 42.963497 0.000000 13.081642 42.932973 0.000000 11.023816 45.589965 0.000000 10.635812 42.519605 0.000000 6.973744 44.975222 0.000000 8.696510 43.925212 0.000000 8.430673 45.791008 0.000000 10.635527 42.517306 0.000000 11.023523 45.587673 0.000000 8.694739 43.930145 0.000000 8.430649 45.798685 0.000000 8.698840 43.933214 0.000000 11.026316 45.592606 0.000000 4.581502 44.919246 0.000000 6.628988 43.034113 0.000000 6.978132 44.939116 0.000000 8.715146 43.913951 0.000000 6.978408 44.940732 0.000000 6.635029 43.034681 0.000000 6.569445 43.047885 0.000000 4.532715 44.944633 0.000000 4.652269 42.398208 0.000000 0.309248 45.067559 0.000000 2.137540 42.685046 0.000000 2.375603 44.921604 0.000000 4.645293 42.384666 0.000000 4.532848 44.931370 0.000000 2.146490 42.737824 0.000000 2.381063 44.972876 0.000000 2.144694 42.736179 0.000000 4.531045 44.929712 0.000000 2.131998 42.687859 0.000000 0.305845 45.071994 0.000000 -0.440369 42.908398 0.000000 -4.461752 45.895730 0.000000 -2.246755 44.164434 0.000000 -1.946648 46.145737 0.000000 -0.454647 42.900089 0.000000 0.294643 45.062635 0.000000 -2.224338 44.132373 0.000000 -1.925249 46.112431 0.000000 -2.227041 44.131375 0.000000 0.291941 45.061637 0.000000 -2.247153 44.164746 0.000000 -4.462149 45.896040 0.000000 -4.513897 43.108109 0.000000 -8.347987 45.385966 0.000000 -6.637666 44.351344 0.000000 -6.789966 46.127476 0.000000 -4.513222 43.144903 0.000000 -4.462032 45.932846 0.000000 -6.629535 44.331639 0.000000 -6.788579 46.121028 0.000000 -6.628664 44.345566 0.000000 -4.454834 45.938173 0.000000 -11.012292 45.673496 0.000000 -8.850440 43.515110 0.000000 -8.343819 45.382051 0.000000 -6.627419 44.343632 0.000000 -8.346281 45.364002 0.000000 -8.852276 43.496892 0.000000 -8.849429 43.514101 0.000000 -11.011897 45.671868 0.000000 -11.169050 42.602710 0.000000 -15.813548 45.375364 0.000000 -13.452613 43.913162 0.000000 -13.507903 45.804793 0.000000 -11.169778 42.612848 0.000000 -11.011396 45.681942 0.000000 -13.390986 43.860545 0.000000 -13.496586 45.781166 0.000000 -13.405026 43.890944 0.000000 -11.037582 45.728102 0.000000 -13.385707 43.872639 0.000000 -15.766475 45.302287 0.000000 -15.590698 42.509543 0.000000 -19.509053 46.151038 0.000000 -18.045054 43.427978 0.000000 -15.758629 45.328825 0.000000 -15.594465 42.510781 0.000000 -15.766565 45.303769 0.000000 -18.060217 43.411669 0.000000 -18.076356 43.426380 0.000000 -19.519320 46.160644 0.000000 -20.330748 43.623266 0.000000 -22.389381 44.981764 0.000000 -20.334647 43.819798 0.000000 -19.653397 46.395183 0.000000 27.871489 41.956310 0.000000 25.250758 43.573445 0.000000 25.663225 40.975470 0.000000 25.607545 40.977124 0.000000 25.236207 43.581295 0.000000 22.498462 41.647425 0.000000 20.400188 43.634669 0.000000 22.337432 41.446486 0.000000 22.345601 44.876135 0.000000 25.100385 43.512138 0.000000 22.409869 45.010297 0.000000 22.360719 41.580990 0.000000 18.135958 43.666980 0.000000 19.566718 41.958641 0.000000 20.367333 43.615139 0.000000 22.334079 41.442816 0.000000 20.375790 43.612185 0.000000 19.585138 41.950909 0.000000 15.636904 43.232097 0.000000 17.486945 41.416659 0.000000 18.143873 43.656742 0.000000 19.574132 41.948425 0.000000 18.144043 43.657326 0.000000 17.487384 41.417164 0.000000 17.491565 41.411988 0.000000 15.641522 43.227423 0.000000 14.927833 40.629369 0.000000 13.063336 42.958175 0.000000 14.927867 40.629767 0.000000 15.641371 43.227872 0.000000 14.947416 40.604098 0.000000 13.081817 42.931651 0.000000 12.260676 40.584390 0.000000 10.635356 42.516616 0.000000 12.260678 40.585075 0.000000 13.080724 42.932719 0.000000 12.272624 40.570657 0.000000 10.646260 42.501296 0.000000 10.257952 40.428445 0.000000 6.604555 43.022002 0.000000 8.511359 41.573712 0.000000 8.691172 43.885733 0.000000 10.256900 40.426655 0.000000 10.645578 42.499440 0.000000 8.513503 41.598120 0.000000 8.705735 43.910744 0.000000 8.516671 41.599461 0.000000 10.648698 42.500890 0.000000 8.474449 41.596795 0.000000 6.570065 43.048266 0.000000 6.163147 40.481854 0.000000 4.652025 42.398124 0.000000 6.162940 40.480906 0.000000 6.569337 43.047401 0.000000 6.161945 40.478734 0.000000 4.649943 42.395070 0.000000 3.834170 40.762817 0.000000 2.144644 42.738046 0.000000 3.822568 40.755281 0.000000 4.643458 42.384931 0.000000 3.821308 40.756498 0.000000 2.143425 42.739339 0.000000 1.978670 39.868663 0.000000 1.965090 39.819853 0.000000 2.134421 42.690303 0.000000 -0.109825 40.863568 0.000000 -0.440921 42.908446 0.000000 -0.112929 40.861329 0.000000 2.131446 42.687904 0.000000 -4.505366 43.108324 0.000000 -2.347790 41.806217 0.000000 -2.240071 44.168079 0.000000 -0.122103 40.859106 0.000000 -0.443521 42.907274 0.000000 -2.328213 41.781322 0.000000 -2.238348 44.139498 0.000000 -2.349036 41.777766 0.000000 -0.467464 42.908925 0.000000 -2.351408 41.808412 0.000000 -4.509513 43.109640 0.000000 -4.577626 40.554137 0.000000 -8.853024 43.494144 0.000000 -6.802737 41.975763 0.000000 -6.628969 44.342991 0.000000 -6.629995 44.328982 0.000000 -6.803651 41.961748 0.000000 -4.512441 43.144467 0.000000 -4.581056 40.587931 0.000000 -4.514329 43.143470 0.000000 -6.804279 41.958281 0.000000 -11.169899 42.596879 0.000000 -9.151479 41.063669 0.000000 -8.850972 43.510034 0.000000 -6.801946 41.975033 0.000000 -
[...]
<PointData Vectors='Velocity Force Displacement'>
<DataArray type='Float32' Name='Velocity' NumberOfComponents='3' format='ascii'>
1.028280 5.025688 0.000000 1.315381 6.407291 0.000000 0.343202 5.889184 0.000000 0.352535 -1.596699 0.000000 2.948653 0.425375 0.000000 0.597902 1.452594 0.000000 1.504538 3.020801 0.000000 0.602777 2.498898 0.000000 1.581685 2.046051 0.000000 1.832334 0.306514 0.000000 0.497699 -0.653012 0.000000 1.769473 -0.661420 0.000000 -0.177713 -1.122672 0.000000 0.982095 -0.723215 0.000000 -0.104926 0.031997 0.000000 0.941442 0.095467 0.000000 -0.080152 0.109736 0.000000 1.001093 -0.712935 0.000000 -0.266696 -1.087883 0.000000 -0.257791 -1.047525 0.000000 -0.251473 -1.026643 0.000000 -0.268109 -1.001815 0.000000 -0.298506 -1.013507 0.000000 -0.241596 -1.012769 0.000000 -0.337622 -1.334152 0.000000 -0.170561 -1.241608 0.000000 -0.322964 -1.158635 0.000000 -0.265595 2.100795 0.000000 -2.373265 0.373340 0.000000 -0.213973 -1.078162 0.000000 -2.402816 0.379565 0.000000 -0.885331 1.658659 0.000000 -2.417398 1.623199 0.000000 -0.565672 3.954244 0.000000 -6.027827 -0.895823 0.000000 0.364352 -5.575699 0.000000 -2.464525 1.531778 0.000000 -0.924079 1.574330 0.000000 -2.528215 2.755834 0.000000 -1.489422 1.618953 0.000000 -0.693235 2.331822 0.000000 -1.709010 2.692966 0.000000 -1.019238 6.100589 0.000000 -0.888120 6.279946 0.000000 -1.064621 6.337530 0.000000 8.255506 12.677613 0.000000 6.671730 7.423302 0.000000 9.662492 6.972879 0.000000 3.891050 7.007332 0.000000 4.767987 9.456137 0.000000 2.506510 7.378909 0.000000 1.293243 2.439915 0.000000 2.583525 3.663539 0.000000 1.082100 3.584309 0.000000 1.875655 3.818163 0.000000 2.086889 3.904687 0.000000 1.865532 3.960204 0.000000 2.348746 4.719291 0.000000 1.587171 4.585942 0.000000 2.197359 4.094516 0.000000 0.658198 2.776846 0.000000 0.535859 2.776974 0.000000 0.669044 2.708454 0.000000 1.972796 1.610972 0.000000 1.765572 1.326383 0.000000 1.978411 1.255102 0.000000 1.335291 0.212006 0.000000 2.037035 1.229376 0.000000 1.183425 1.476479 0.000000 1.295573 2.012793 0.000000 0.480328 0.813462 0.000000 1.780878 1.110360 0.000000 0.978848 -0.726293 0.000000 1.308297 -0.383528 0.000000 0.946257 -0.384226 0.000000 1.737312 0.869311 0.000000 0.907173 0.714740 0.000000 1.696750 -0.012680 0.000000 0.864711 -0.011202 0.000000 1.702116 -0.011880 0.000000 0.916649 0.716835 0.000000 0.152973 0.440833 0.000000 0.002943 0.333560 0.000000 0.142628 0.294216 0.000000 -0.098691 -1.264975 0.000000 -0.121539 -1.251855 0.000000 -0.090038 -1.298304 0.000000 -0.361852 -1.332753 0.000000 -0.208526 -1.295133 0.000000 -0.336808 -1.153744 0.000000 -0.356071 -1.329067 0.000000 -0.346187 -1.328384 0.000000 -0.352366 -1.318859 0.000000 -0.323523 -1.168383 0.000000 -0.440289 -1.233108 0.000000 -0.342519 -1.339579 0.000000 -1.008360 1.725775 0.000000 -1.617634 1.182551 0.000000 -0.972619 1.199162 0.000000 -0.996316 -0.264689 0.000000 -0.877071 -0.197293 0.000000 -1.018950 -0.094388 0.000000 -0.359951 1.284218 0.000000 -1.445736 1.263254 0.000000 -0.336803 0.378044 0.000000 -1.142222 2.513304 0.000000 -1.523065 1.948910 0.000000 -0.969761 1.701084 0.000000 -1.528581 1.184497 0.000000 -0.976641 1.676538 0.000000 -1.467286 1.895371 0.000000 -0.816807 1.381524 0.000000 -0.422099 1.972975 0.000000 -1.084183 1.942232 0.000000 -2.525499 5.485884 0.000000 -2.287240 5.747609 0.000000 -2.599380 5.773684 0.000000 -1.072816 1.922395 0.000000 -0.714326 1.939729 0.000000 -1.013238 2.442304 0.000000 0.078597 3.291975 0.000000 -2.491538 3.611618 0.000000 -1.328583 1.520202 0.000000 -3.547917 5.301259 0.000000 -3.317317 5.550958 0.000000 -3.541252 5.529064 0.000000 -4.843225 11.619401 0.000000 -6.636053 5.597592 0.000000 -3.361261 6.802867 0.000000 -2.912635 7.425626 0.000000 -3.123594 7.331183 0.000000 -2.812350 7.107259 0.000000 -3.623275 5.558321 0.000000 -3.499329 5.570327 0.000000 -3.646550 5.676318 0.000000 1.447178 4.958285 0.000000 2.322406 6.731156 0.000000 0.680389 6.226114 0.000000 1.282396 2.695034 0.000000 2.217507 2.993068 0.000000 1.315781 3.513029 0.000000 1.270157 3.723256 0.000000 0.424733 2.942108 0.000000 1.469245 2.331982 0.000000 0.747077 2.575362 0.000000 0.802623 2.629109 0.000000 0.735439 2.647220 0.000000 0.835780 2.743175 0.000000 0.865616 2.769952 0.000000 0.828308 2.779958 0.000000 0.646235 2.607360 0.000000 0.765041 2.699541 0.000000 0.668241 2.739033 0.000000 0.871869 2.548572 0.000000 0.899226 2.572891 0.000000 0.868603 2.585267 0.000000 1.640227 1.560093 0.000000 1.894424 1.743187 0.000000 1.649638 1.775765 0.000000 1.411485 0.849858 0.000000 1.798044 1.483548 0.000000 1.114854 1.383778 0.000000 1.683818 1.768870 0.000000 1.841174 1.753708 0.000000 1.785789 1.822288 0.000000 1.618692 1.760739 0.000000 1.614412 1.760124 0.000000 1.618219 1.754784 0.000000 1.635525 -0.288863 0.000000 2.265447 0.396246 0.000000 1.632762 0.513700 0.000000 2.234784 1.490405 0.000000 1.650650 0.510423 0.000000 2.728686 0.320585 0.000000 0.420630 0.867962 0.000000 0.239071 0.672957 0.000000 0.482826 0.684448 0.000000 -0.068856 -1.245683 0.000000 -0.174232 -1.323275 0.000000 -0.076590 -1.327715 0.000000 0.183972 0.432490 0.000000 0.150337 0.407663 0.000000 0.175830 0.400046 0.000000 0.104790 0.339147 0.000000 0.184730 0.311983 0.000000 0.117074 0.441568 0.000000 -0.198462 -1.314156 0.000000 -0.084123 -1.217254 0.000000 -0.188653 -1.179365 0.000000 -0.907304 -0.268995 0.000000 -0.898346 -0.264560 0.000000 -0.910882 -0.260163 0.000000 -0.558833 -1.418509 0.000000 -0.412488 -1.468832 0.000000 -0.475601 -1.299876 0.000000 -0.348596 -1.321603 0.000000 -0.475354 -1.299660 0.000000 -0.412657 -1.468375 0.000000 -0.898814 -0.263622 0.000000 -0.905427 -0.269957 0.000000 -0.895104 -0.267772 0.000000 -0.970605 1.983810 0.000000 -1.295803 1.446224 0.000000 -0.737534 1.494097 0.000000 -0.899988 0.943441 0.000000 -0.884885 0.942463 0.000000 -0.893724 0.955390 0.000000 -0.690595 1.387409 0.000000 -0.920837 1.366670 0.000000 -0.714309 1.084766 0.000000 -0.816057 1.991629 0.000000 -0.939534 1.868045 0.000000 -0.832698 1.839045 0.000000 -0.942378 1.204697 0.000000 -1.028877 1.058985 0.000000 -0.870598 1.016091 0.000000 -0.899137 1.830860 0.000000 -0.865394 1.864674 0.000000 -0.913413 1.867117 0.000000 -1.623440 3.820050 0.000000 -1.914902 3.349439 0.000000 -1.537839 3.360461 0.000000 -0.875931 2.091618 0.000000 -0.842428 2.090019 0.000000 -0.862323 2.115772 0.000000 -1.237461 2.524511 0.000000 -0.965125 2.537702 0.000000 -1.229815 2.878795 0.000000 -0.606768 2.589281 0.000000 -0.644093 2.650211 0.000000 -0.628306 2.619599 0.000000 -0.383582 2.776378 0.000000 -0.297211 2.822814 0.000000 -0.357503 2.895335 0.000000 -0.576808 2.541788 0.000000 -0.710572 2.509715 0.000000 -0.638474 2.379165 0.000000 -0.964680 2.640284 0.000000 -0.511165 2.879621 0.000000 -0.932025 3.014207 0.000000 -2.360989 5.224791 0.000000 -1.118190 7.422396 0.000000 -3.872659 8.151057 0.000000 6.184629 6.694686 0.000000 6.101553 6.560054 0.000000 6.235017 6.581243 0.000000 4.765227 6.561569 0.000000 5.720972 6.697857 0.000000 5.011226 7.702621 0.000000 1.237104 2.995749 0.000000 1.083665 2.859906 0.000000 1.324158 2.859333 0.000000 2.334152 4.989150 0.000000 2.889503 5.986506 0.000000 1.618286 6.004719 0.000000 0.917405 2.580218 0.000000 0.920984 2.583409 0.000000 0.917648 2.585033 0.000000 1.046996 2.949100 0.000000 0.777377 2.705716 0.000000 0.983848 2.607450 0.000000 0.923129 2.568609 0.000000 0.944132 2.589825 0.000000 0.918234 2.597464 0.000000 0.949816 2.608695 0.000000 0.914199 2.578938 0.000000 0.961164 2.564856 0.000000 1.039680 2.486648 0.000000 1.016357 2.462881 0.000000 1.049734 2.453712 0.000000 0.991930 2.431042 0.000000 1.038460 2.468325 0.000000 0.986585 2.482591 0.000000 1.725573 1.553052 0.000000 1.812175 1.622395 0.000000 1.724654 1.652956 0.000000 1.702118 1.656511 0.000000 1.628634 1.594835 0.000000 1.717448 1.563890 0.000000 2.113522 1.162337 0.000000 2.141554 1.182754 0.000000 2.112856 1.186970 0.000000 1.744312 -0.186403 0.000000 1.996891 0.147100 0.000000 1.593113 0.178567 0.000000 2.061113 1.183262 0.000000 2.066574 1.182204 0.000000 2.064222 1.187862 0.000000 2.054751 1.225723 0.000000 2.127986 1.218766 0.000000 2.098929 1.283850 0.000000 0.543226 1.005290 0.000000 0.400714 0.818284 0.000000 0.652754 0.778279 0.000000 0.479552 0.678732 0.000000 0.643843 0.808281 0.000000 0.423894 0.843060 0.000000 0.517286 0.631687 0.000000 0.398707 0.548422 0.000000 0.498025 0.498842 0.000000 0.195675 0.348152 0.000000 0.247981 0.405453 0.000000 0.183200 0.443399 0.000000 0.222197 0.443659 0.000000 0.120197 0.349328 0.000000 0.267507 0.346360 0.000000 -0.259151 -1.336637 0.000000 -0.223791 -1.338884 0.000000 -0.244205 -1.311254 0.000000 -0.188376 -1.178671 0.000000 -0.301697 -1.198005 0.000000 -0.199274 -1.315622 0.000000 -0.913279 -0.184606 0.000000 -0.968879 -0.270931 0.000000 -0.870659 -0.269377 0.000000 -0.581334 -1.294785 0.000000 -0.278836 -1.247400 0.000000 -0.444902 -0.969407 0.000000 -0.818785 -1.120579 0.000000 -0.965601 -1.114049 0.000000 -0.895364 -1.230930 0.000000 -0.978404 -0.263846 0.000000 -0.978483 -0.261935 0.000000 -0.977613 -0.261778 0.000000 -0.881075 1.153344 0.000000 -0.842203 1.209796 0.000000 -0.904599 1.212551 0.000000 -0.924385 0.840830 0.000000 -0.836049 0.835164 0.000000 -0.878440 0.921234 0.000000 -0.923888 0.868303 0.000000 -1.002709 0.870361 0.000000 -0.966154 0.799731 0.000000 -0.880789 1.853052 0.000000 -0.958055 1.751231 0.000000 -0.834399 1.736004 0.000000 -0.881476 1.162926 0.000000 -0.861223 1.191854 0.000000 -0.896564 1.196530 0.000000 -0.854923 1.742784 0.000000 -0.886083 1.701291 0.000000 -0.838709 1.698802 0.000000 -0.963742 2.275461 0.000000 -1.055351 2.099778 0.000000 -0.858188 2.104235 0.000000 -0.844633 2.130548 0.000000 -1.029249 2.126191 0.000000 -0.935429 1.969637 0.000000 -0.915712 1.928666 0.000000 -0.935876 1.929650 0.000000 -0.925377 1.911292 0.000000 -0.902597 2.016544 0.000000 -0.920522 2.005462 0.000000 -0.904375 2.008232 0.000000 -0.883574 2.186690 0.000000 -0.950921 2.181951 0.000000 -0.911042 2.125960 0.000000 -0.696867 2.374848 0.000000 -0.670097 2.380065 0.000000 -0.686646 2.402981 0.000000 -0.638572 2.364868 0.000000 -0.619351 2.368604 0.000000 -0.632161 2.380913 0.000000 -0.540698 2.480382 0.000000 -0.425162 2.530262 0.000000 -0.528747 2.629423 0.000000 -2.659159 4.652831 0.000000 -2.701057 4.579568 0.000000 -2.622443 4.584413 0.000000 -1.069038 3.335140 0.000000 -1.214289 3.271649 0.000000 -1.058493 3.122136 0.000000 -1.948387 3.743200 0.000000 -1.215546 3.793751 0.000000 -1.656699 4.215487 0.000000 -0.929036 2.928532 0.000000 -0.825058 3.109875 0.000000 -1.011643 3.115602 0.000000 -2.917456 4.910059 0.000000 -2.957792 4.835475 0.000000 -2.869787 4.832803 0.000000 8.228222 7.062934 0.000000 6.772762 5.124638 0.000000 8.004188 5.078439 0.000000 2.319503 4.340547 0.000000 2.627579 4.731920 0.000000 2.152135 4.711551 0.000000 3.819150 5.075215 0.000000 3.413818 5.062566 0.000000 3.562206 4.715525 0.000000 2.383512 4.389744 0.000000 2.426031 4.386510 0.000000 2.397913 4.452377 0.000000 2.139278 4.356871 0.000000 2.070090 4.269650 0.000000 2.159022 4.232474 0.000000 1.968301 4.469738 0.000000 1.836234 4.376133 0.000000 1.940414 4.331945 0.000000 1.165769 2.913989 0.000000 1.127443 2.886605 0.000000 1.162504 2.880544 0.000000 0.870941 2.636553 0.000000 0.832837 2.590427 0.000000 0.884988 2.588193 0.000000 1.069460 2.634714 0.000000 0.595528 2.715705 0.000000 0.909720 2.234092 0.000000 0.895035 2.589022 0.000000 1.232214 2.586310 0.000000 0.969130 2.990220 0.000000 1.185376 2.467189 0.000000 1.177628 2.453645 0.000000 1.190261 2.451231 0.000000 1.166717 2.443809 0.000000 1.130565 2.396068 0.000000 1.174416 2.386965 0.000000 0.805541 1.560711 0.000000 0.683839 1.346825 0.000000 0.937051 1.403342 0.000000 0.874070 1.323543 0.000000 0.676734 1.278901 0.000000 0.818586 1.167991 0.000000 0.682883 1.081252 0.000000 0.818376 1.168529 0.000000 0.677893 1.278412 0.000000 0.798785 1.163766 0.000000 0.684890 1.086920 0.000000 0.826186 1.028929 0.000000 0.705990 0.977466 0.000000 0.826037 1.028784 0.000000 0.698200 1.089584 0.000000 0.518670 0.625732 0.000000 0.667031 0.907333 0.000000 0.392511 0.889805 0.000000 0.826041 1.029089 0.000000 0.706400 0.976188 0.000000 0.774918 0.884545 0.000000 0.643254 1.005909 0.000000 0.671198 1.007599 0.000000 0.656935 1.026272 0.000000 0.634770 0.841668 0.000000 0.516547 0.621383 0.000000 0.744266 0.670472 0.000000 0.357859 0.181061 0.000000 0.550358 0.427424 0.000000 0.247653 0.404156 0.000000 0.744746 0.668967 0.000000 0.481233 0.611668 0.000000 0.712088 0.404368 0.000000 0.442528 0.362512 0.000000 0.711183 0.404164 0.000000 0.481457 0.613178 0.000000 0.212977 0.661727 0.000000 0.033988 0.406653 0.000000 0.290783 0.375403 0.000000 -0.218798 -1.370442 0.000000 -0.207337 -1.371646 0.000000 -0.213032 -1.366151 0.000000 -0.185897 -1.266384 0.000000 -0.304734 -1.283991 0.000000 -0.248379 -1.391356 0.000000 -0.963350 -0.385817 0.000000 -0.862635 -0.211046 0.000000 -1.053958 -0.224328 0.000000 -0.305831 -1.215036 0.000000 -0.209212 -1.202554 0.000000 -0.290291 -1.106047 0.000000 -0.445292 -0.969050 0.000000 -0.835327 -0.994771 0.000000 -0.580994 -1.293874 0.000000 -0.863216 -0.210708 0.000000 -0.963261 -0.385758 0.000000 -0.787215 -0.384624 0.000000 -0.940754 1.159496 0.000000 -0.956060 1.142112 0.000000 -0.933772 1.140665 0.000000 -0.763511 0.922361 0.000000 -0.872417 0.921348 0.000000 -0.809003 0.807889 0.000000 -1.001282 0.794312 0.000000 -0.891862 0.783138 0.000000 -0.947253 0.881906 0.000000 -0.977908 1.394999 0.000000 -0.887926 1.502475 0.000000 -1.037829 1.540614 0.000000 -0.957758 1.143420 0.000000 -0.948406 1.153542 0.000000 -0.959650 1.156403 0.000000 -0.890099 1.487065 0.000000 -0.977933 1.382160 0.000000 -0.874720 1.383806 0.000000 -0.974532 1.814390 0.000000 -0.924706 1.899824 0.000000 -1.024282 1.902324 0.000000 -1.003743 1.734184 0.000000 -0.808027 1.758202 0.000000 -0.916308 1.886894 0.000000 -0.899789 1.447599 0.000000 -0.974674 1.444407 0.000000 -0.901899 1.365785 0.000000 -0.923582 1.898492 0.000000 -0.975743 1.812111 0.000000 -0.890714 1.803767 0.000000 -0.870055 2.112803 0.000000 -0.954584 2.098577 0.000000 -0.910562 2.019002 0.000000 -0.910147 2.013752 0.000000 -0.955952 2.017713 0.000000 -0.937198 1.979420 0.000000 -0.709996 2.639610 0.000000 -0.804418 2.542037 0.000000 -0.705769 2.535350 0.000000 -0.955050 2.098477 0.000000 -0.995164 2.091871 0.000000 -0.959846 2.048036 0.000000 -0.661290 2.361610 0.000000 -0.674936 2.362482 0.000000 -0.665700 2.350563 0.000000 -0.995914 2.878365 0.000000 -1.078222 2.773176 0.000000 -0.935882 2.741959 0.000000 -0.731810 2.467364 0.000000 -0.614694 2.588596 0.000000 -0.772762 2.623377 0.000000 -1.245142 2.675871 0.000000 -0.982954 3.004917 0.000000 -1.358438 3.059837 0.000000 -3.099353 5.848444 0.000000 -3.154668 5.680527 0.000000 -2.981799 5.682855 0.000000 -1.871224 3.925062 0.000000 -1.237590 3.829799 0.000000 -1.534623 4.439635 0.000000 -2.497406 4.967081 0.000000 -2.733532 4.964460 0.000000 -2.622455 4.740211 0.000000 -3.864698 4.905237 0.000000 -4.235847 5.374101 0.000000 -4.244421 4.799472 0.000000 -3.688009 4.482758 0.000000 -3.356578 5.436852 0.000000 -4.094656 5.236634 0.000000 4.164360 6.392885 0.000000 2.858864 4.884789 0.000000 4.289338 4.596534 0.000000 0.956836 4.057057 0.000000 1.280880 4.348572 0.000000 1.030472 4.393946 0.000000 2.538843 4.632631 0.000000 2.676298 4.607391 0.000000 2.567734 4.834203 0.000000 2.712975 4.448133 0.000000 2.623579 4.468305 0.000000 2.678492 4.353291 0.000000 0.937198 3.994889 0.000000 0.978585 4.044600 0.000000 0.926061 4.065430 0.000000 1.228323 4.283702 0.000000 0.970479 4.051413 0.000000 1.257197 3.938790 0.000000 0.841236 3.355177 0.000000 1.187467 3.764337 0.000000 0.766997 3.750252 0.000000 0.712677 2.504256 0.000000 0.715371 2.504376 0.000000 0.713367 2.506624 0.000000 0.864526 2.642194 0.000000 0.862339 2.641530 0.000000 0.864239 2.639401 0.000000 1.072793 1.930645 0.000000 1.074981 1.931301 0.000000 1.073641 1.932779 0.000000 0.888819 1.851064 0.000000 1.052024 1.913166 0.000000 0.955219 2.014212 0.000000 1.010474 1.354670 0.000000 1.041284 1.463741 0.000000 0.957692 1.420633 0.000000 1.091999 1.897536 0.000000 0.623168 1.711934 0.000000 1.137423 1.405671 0.000000 0.781722 1.722631 0.000000 0.967845 1.803187 0.000000 0.760197 1.929915 0.000000 0.888077 1.510570 0.000000 0.825720 1.328903 0.000000 0.966210 1.366621 0.000000 0.819115 1.031503 0.000000 0.884750 1.109213 0.000000 0.802611 1.109213 0.000000 0.942554 1.290731 0.000000 0.855048 1.267980 0.000000 0.942283 1.173673 0.000000 0.811955 1.165491 0.000000 0.939860 1.174512 0.000000 0.847699 1.272411 0.000000 0.884520 1.105749 0.000000 0.818364 1.032256 0.000000 0.881306 1.032209 0.000000 0.781178 0.690443 0.000000 0.872987 0.815462 0.000000 0.709225 0.797736 0.000000 0.881549 1.008259 0.000000 0.818239 1.008401 0.000000 0.875592 0.937903 0.000000 0.734756 0.897644 0.000000 0.839693 0.909127 0.000000 0.770180 0.991167 0.000000 0.752794 0.617511 0.000000 0.790710 0.680099 0.000000 0.731616 0.706740 0.000000 0.496672 0.348634 0.000000 0.721718 0.478400 0.000000 0.526631 0.552006 0.000000 0.508191 0.762729 0.000000 0.314749 0.647405 0.000000 0.484702 0.568482 0.000000 0.291183 0.374163 0.000000 0.474479 0.539877 0.000000 0.211935 0.663290 0.000000 0.429129 0.590913 0.000000 0.244926 0.427419 0.000000 0.446456 0.379012 0.000000 -0.300297 -1.179412 0.000000 -0.341726 -1.204423 0.000000 -0.306079 -1.217141 0.000000 -0.412659 -1.446335 0.000000 -0.299646 -1.468489 0.000000 -0.342146 -1.317800 0.000000 -0.217512 -1.366737 0.000000 -0.342410 -1.317900 0.000000 -0.297157 -1.467794 0.000000 -0.642620 -0.804984 0.000000 -0.625125 -0.794777 0.000000 -0.640203 -0.789018 0.000000 -0.863330 -0.469249 0.000000 -0.763836 -0.305924 0.000000 -0.971238 -0.226852 0.000000 -0.761459 -0.307912 0.000000 -0.866334 -0.474032 0.000000 -0.690073 -0.445646 0.000000 -0.876320 0.720927 0.000000 -0.951491 0.709233 0.000000 -0.893815 0.639082 0.000000 -0.814092 0.820123 0.000000 -0.712212 0.847208 0.000000 -0.778548 0.911585 0.000000 -0.858524 1.165719 0.000000 -0.959010 1.136396 0.000000 -0.885398 1.082770 0.000000 -0.945815 1.102046 0.000000 -0.915743 1.123965 0.000000 -0.952368 1.150752 0.000000 -0.944696 1.339394 0.000000 -0.914900 1.405528 0.000000 -0.952507 1.394433 0.000000 -0.932867 1.326948 0.000000 -0.842148 1.342311 0.000000 -0.944444 1.405159 0.000000 -0.974880 1.163922 0.000000 -1.013067 1.136112 0.000000 -0.965303 1.106657 0.000000 -0.867636 1.740029 0.000000 -0.843417 1.764551 0.000000 -0.876762 1.773491 0.000000 -0.895467 1.377294 0.000000 -0.952236 1.310249 0.000000 -0.863115 1.288150 0.000000 -0.848694 1.757919 0.000000 -0.867475 1.740330 0.000000 -0.848201 1.733937 0.000000 -0.992464 2.166975 0.000000 -1.026840 2.140867 0.000000 -0.997395 2.130122 0.000000 -0.940382 1.975455 0.000000 -0.942159 1.973745 0.000000 -0.941999 1.974334 0.000000 -1.003655 1.829159 0.000000 -0.880924 1.779645 0.000000 -0.931189 1.940714 0.000000 -0.829528 2.540895 0.000000 -0.926769 2.444536 0.000000 -0.793592 2.399714 0.000000 -1.023703 2.139416 0.000000 -0.990860 2.164339 0.000000 -1.033074 2.178420 0.000000 -0.853154 2.607886 0.000000 -0.843001 2.617831 0.000000 -0.856347 2.622075 0.000000 -0.869101 3.102711 0.000000 -1.136407 2.853362 0.000000 -0.749974 2.695065 0.000000 -1.199206 2.783339 0.000000 -0.950779 2.967823 0.000000 -1.159361 3.012369 0.000000 -2.203711 4.447428 0.000000 -1.952642 4.877100 0.000000 -2.457119 4.891057 0.000000 -1.123389 3.291946 0.000000 -1.443195 3.304444 0.000000 -1.317747 2.989027 0.000000 -1.258619 3.110550 0.000000 -0.976683 3.040071 0.000000 -1.106713 3.366231 0.000000 -1.937945 4.972377 0.000000 -2.221763 4.489544 0.000000 -1.732180 4.400442 0.000000 -2.464623 4.309842 0.000000 -2.079220 4.823573 0.000000 -2.463157 4.895274 0.000000 -5.806904 4.646150 0.000000 -5.565797 4.382650 0.000000 -5.506132 4.700144 0.000000 -4.247038 4.999899 0.000000 -4.192628 5.071224 0.000000 -4.264353 5.058754 0.000000 7