<?xml version='1.0'?>
<VTKFile type='UnstructuredGrid' version='0.1' byte_order='LittleEndian'><UnstructuredGrid>
<Piece NumberOfPoints='3000' NumberOfCells='0'>
<PointData Vectors='principal_stress_direction_1 principal_stress_direction_2 principal_stress_direction_3'>
<DataArray type='Float32' Name='principal_stress_direction_1' NumberOfComponents='3' format='ascii'>
-0.981013 0.193942 0.000000 0.606845 -0.794821 0.000000 0.998199 -0.059992 0.000000 0.900246 -0.435382 0.000000 0.387909 -0.921698 0.000000 0.253022 -0.967461 0.000000 -0.347309 -0.937751 0.000000 0.594971 -0.803747 0.000000 0.226852 -0.973929 0.000000 -0.658774 -0.752341 0.000000 0.855444 -0.517895 0.000000 0.979171 0.203037 0.000000 0.499311 0.866423 0.000000 0.930014 0.367523 0.000000 -0.997933 0.064270 0.000000 -0.999912 0.013259 0.000000 -0.786696 0.617341 0.000000 -0.570462 0.821324 0.000000 0.999967 -0.008100 0.000000 0.637217 0.770684 0.000000 0.833455 0.552587 0.000000 0.983629 0.180203 0.000000 -0.223832 -0.974628 0.000000 -0.831366 -0.555725 0.000000 0.848223 -0.529639 0.000000 0.755720 -0.654895 0.000000 0.809424 -0.587225 0.000000 -0.016617 -0.999862 0.000000 -0.145785 -0.989316 0.000000 0.355534 -0.934663 0.000000 -0.304342 -0.952563 0.000000 0.178481 -0.983943 0.000000 -0.589822 0.807533 0.000000 -0.036592 -0.999330 0.000000 -0.622879 -0.782318 0.000000 0.577328 0.816513 0.000000 0.991994 -0.126281 0.000000 -0.710619 0.703577 0.000000 -0.664002 0.747730 0.000000 0.957356 0.288912 0.000000 0.270450 0.962734 0.000000 0.738949 -0.673762 0.000000 -0.991435 0.130600 0.000000 -0.724751 -0.689011 0.000000 -0.572714 -0.819755 0.000000 -0.820161 0.572133 0.000000 0.216317 0.976323 0.000000 -0.537762 -0.843097 0.000000 0.604453 -0.796641 0.000000 -0.984054 -0.177870 0.000000 -0.790343 -0.612665 0.000000 0.973434 -0.228967 0.000000 -0.990669 -0.136293 0.000000 0.943987 -0.329981 0.000000 0.921787 -0.387698 0.000000 -0.964865 -0.262747 0.000000 0.891533 -0.452956 0.000000 0.764512 -0.644610 0.000000 0.462045 -0.886857 0.000000 0.156812 -0.987628 0.000000 0.306188 -0.951971 0.000000 0.306333 -0.951924 0.000000 0.222104 -0.975023 0.000000 -0.496795 -0.867868 0.000000 0.095524 -0.995427 0.000000 -0.095955 -0.995386 0.000000 -0.597164 -0.802119 0.000000 -0.869940 -0.493157 0.000000 -0.152681 -0.988276 0.000000 -0.821539 -0.570153 0.000000 -0.494653 -0.869090 0.000000 -0.931384 -0.364038 0.000000 -0.913962 -0.405800 0.000000 -0.922740 0.385422 0.000000 -0.429974 -0.902841 0.000000 0.868320 0.496004 0.000000 0.984001 0.178163 0.000000 0.584784 -0.811189 0.000000 -0.818269 -0.574835 0.000000 -0.817629 0.575745 0.000000 0.824958 0.565194 0.000000 -0.788329 0.615254 0.000000 0.950577 0.310489 0.000000 -0.164659 0.986351 0.000000 0.365483 0.930818 0.000000 0.695095 0.718918 0.000000 -0.349313 -0.937006 0.000000 -0.739013 -0.673691 0.000000 0.675443 0.737412 0.000000 -0.984493 -0.175424 0.000000 0.891794 -0.452441 0.000000 -0.994999 -0.099883 0.000000 0.835044 -0.550183 0.000000 0.755260 -0.655425 0.000000 0.812531 -0.582918 0.000000 0.750658 -0.660690 0.000000 0.734394 -0.678723 0.000000 -0.246466 -0.969151 0.000000 0.089412 -0.995995 0.000000 0.604672 -0.796474 0.000000 0.368198 -0.929747 0.000000 0.489655 -0.871916 0.000000 -0.254948 -0.966955 0.000000 0.146294 -0.989241 0.000000 -0.015690 -0.999877 0.000000 0.052641 -0.998613 0.000000 -0.080744 -0.996735 0.000000 0.424875 -0.905252 0.000000 -0.195472 -0.980709 0.000000 -0.912393 -0.409315 0.000000 0.124140 -0.992265 0.000000 -0.984329 -0.176341 0.000000 -0.940545 -0.339670 0.000000 -0.988987 -0.148002 0.000000 -0.854852 -0.518871 0.000000 -0.914380 -0.404858 0.000000 -0.862567 -0.505942 0.000000 -0.860444 -0.509545 0.000000 -0.678973 -0.734164 0.000000 -0.621317 -0.783559 0.000000 -0.151097 -0.988519 0.000000 0.970693 0.240324 0.000000 -0.991214 -0.132266 0.000000 -0.886695 -0.462355 0.000000 0.031879 0.999492 0.000000 -0.960962 -0.276681 0.000000 -0.749027 -0.662540 0.000000 -0.866936 0.498419 0.000000 0.816208 -0.577758 0.000000 -0.713347 0.700811 0.000000 0.982027 0.188742 0.000000 0.988379 0.152011 0.000000 -0.231160 0.972916 0.000000 0.966266 -0.257545 0.000000 -0.943840 -0.330403 0.000000 0.828457 -0.560053 0.000000 0.708684 -0.705526 0.000000 -0.948420 -0.317017 0.000000 0.660500 -0.750826 0.000000 0.971632 -0.236498 0.000000 0.958516 -0.285040 0.000000 0.739168 -0.673521 0.000000 0.952105 -0.305771 0.000000 0.609530 -0.792763 0.000000 0.841508 -0.540245 0.000000 0.994865 -0.101210 0.000000 0.274049 -0.961716 0.000000 0.283423 -0.958995 0.000000 0.245978 -0.969275 0.000000 0.883032 -0.469312 0.000000 0.656711 -0.754142 0.000000 0.328057 -0.944658 0.000000 -0.117156 -0.993114 0.000000 0.133340 -0.991070 0.000000 -0.052692 -0.998611 0.000000 -0.146880 -0.989154 0.000000 -0.041711 -0.999130 0.000000 -0.297743 -0.954646 0.000000 -0.456014 -0.889972 0.000000 -0.056293 -0.998414 0.000000 -0.659843 -0.751404 0.000000 -0.933605 -0.358303 0.000000 -0.776819 -0.629724 0.000000 -0.825479 -0.564433 0.000000 -0.860380 -0.509652 0.000000 -0.999431 -0.033731 0.000000 -0.806622 -0.591067 0.000000 -0.298458 -0.954423 0.000000 -0.833522 -0.552486 0.000000 -0.847156 -0.531344 0.000000 0.714537 -0.699597 0.000000 0.980445 -0.196792 0.000000 -0.069403 -0.997589 0.000000 -0.424964 -0.905210 0.000000 0.026054 -0.999661 0.000000 -0.913213 0.407484 0.000000 -0.194140 -0.980974 0.000000 0.802585 0.596537 0.000000 0.607245 -0.794514 0.000000 0.929874 0.367877 0.000000 -0.979236 0.202725 0.000000 -0.877952 0.478749 0.000000 -0.748384 0.663266 0.000000 0.951523 0.307577 0.000000 -0.866788 -0.498677 0.000000 0.981282 -0.192576 0.000000 -0.847161 0.531337 0.000000 0.729916 -0.683537 0.000000 0.430505 -0.902588 0.000000 0.999773 -0.021316 0.000000 0.999364 -0.035666 0.000000 -0.972445 -0.233133 0.000000 0.942913 -0.333039 0.000000 0.996038 -0.088929 0.000000 -0.999862 -0.016592 0.000000 0.945003 -0.327063 0.000000 0.703063 -0.711128 0.000000 0.709934 -0.704268 0.000000 0.701489 -0.712680 0.000000 -0.321926 -0.946765 0.000000 0.927932 -0.372748 0.000000 -0.938569 -0.345092 0.000000 0.160647 -0.987012 0.000000 0.525424 -0.850841 0.000000 0.543191 -0.839609 0.000000 -0.229434 -0.973324 0.000000 0.553015 -0.833171 0.000000 0.342866 -0.939384 0.000000 -0.216197 -0.976350 0.000000 0.024701 -0.999695 0.000000 -0.015630 -0.999878 0.000000 0.102989 -0.994682 0.000000 -0.564931 -0.825138 0.000000 -0.439177 -0.898401 0.000000 -0.834303 -0.551307 0.000000 -0.103525 -0.994627 0.000000 -0.494176 -0.869362 0.000000 -0.978470 -0.206391 0.000000 -0.808242 -0.588851 0.000000 -0.932539 -0.361069 0.000000 -0.419065 -0.907956 0.000000 0.999766 -0.021625 0.000000 -0.661026 -0.750363 0.000000 -0.466935 -0.884292 0.000000 -0.688489 -0.725247 0.000000 -0.260745 -0.965408 0.000000 0.104745 -0.994499 0.000000 -0.741173 -0.671314 0.000000 -0.821356 -0.570416 0.000000 -0.568803 -0.822473 0.000000 -0.994007 -0.109313 0.000000 -0.727053 0.686581 0.000000 0.675991 0.736910 0.000000 -0.938214 0.346057 0.000000 0.944379 0.328859 0.000000 0.994765 0.102190 0.000000 -0.915264 0.402854 0.000000 0.821469 0.570253 0.000000 -0.721504 0.692410 0.000000 -0.742816 0.669495 0.000000 0.145970 -0.989289 0.000000 0.704601 0.709604 0.000000 -0.470502 0.882399 0.000000 -0.898639 0.438688 0.000000 0.562694 0.826665 0.000000 0.956233 -0.292605 0.000000 0.489421 -0.872048 0.000000 0.830006 -0.557755 0.000000 -0.598214 -0.801337 0.000000 -0.994160 0.107913 0.000000 0.759557 -0.650441 0.000000 -0.215253 0.976558 0.000000 0.984537 -0.175178 0.000000 0.973110 -0.230341 0.000000 0.997537 -0.070136 0.000000 0.665660 -0.746255 0.000000 0.955766 -0.294127 0.000000 0.645043 -0.764147 0.000000 0.700045 -0.714098 0.000000 -0.857887 -0.513839 0.000000 -0.366011 -0.930610 0.000000 0.435660 -0.900111 0.000000 0.869728 -0.493531 0.000000 0.464020 -0.885825 0.000000 0.375689 -0.926746 0.000000 0.218240 -0.975895 0.000000 0.448612 -0.893727 0.000000 -0.066820 -0.997765 0.000000 0.473292 -0.880906 0.000000 -0.064911 -0.997891 0.000000 0.467149 -0.884179 0.000000 -0.401034 -0.916063 0.000000 -0.047535 -0.998870 0.000000 -0.326653 -0.945144 0.000000 -0.978995 0.203884 0.000000 0.335026 -0.942209 0.000000 -0.535879 -0.844295 0.000000 -0.775607 -0.631216 0.000000 0.043852 -0.999038 0.000000 0.845848 -0.533424 0.000000 -0.357298 -0.933990 0.000000 0.066644 -0.997777 0.000000 -0.987173 -0.159654 0.000000 -0.652188 -0.758057 0.000000 -0.808095 -0.589052 0.000000 -0.684928 -0.728610 0.000000 -0.801900 -0.597458 0.000000 -0.829481 -0.558535 0.000000 0.284219 -0.958759 0.000000 -0.745157 0.666889 0.000000 0.632463 0.774591 0.000000 -0.401671 -0.915784 0.000000 0.898164 -0.439660 0.000000 -0.518271 -0.855216 0.000000 -0.236462 0.971641 0.000000 0.199869 0.979823 0.000000 -0.893683 0.448698 0.000000 0.638296 0.769791 0.000000 -0.967397 0.253266 0.000000 0.522840 0.852431 0.000000 -0.489939 0.871757 0.000000 -0.453731 0.891139 0.000000 0.507307 -0.861765 0.000000 -0.718314 0.695719 0.000000 0.828961 0.559307 0.000000 -0.820514 0.571627 0.000000 -0.848202 0.529673 0.000000 0.880377 0.474274 0.000000 0.959874 0.280430 0.000000 0.989740 -0.142878 0.000000 0.481087 -0.876673 0.000000 -0.908098 0.418758 0.000000 0.676073 -0.736835 0.000000 0.987740 -0.156110 0.000000 0.582890 -0.812551 0.000000 -0.225667 -0.974205 0.000000 0.185131 -0.982714 0.000000 -0.193304 -0.981139 0.000000 0.839778 -0.542929 0.000000 -0.205226 -0.978715 0.000000 0.698931 -0.715189 0.000000 0.153804 0.988101 0.000000 0.462091 -0.886832 0.000000 0.144730 -0.989471 0.000000 0.928061 -0.372428 0.000000 0.638114 -0.769942 0.000000 -0.079855 -0.996807 0.000000 0.495586 -0.868559 0.000000 0.460722 -0.887545 0.000000 0.398474 -0.917179 0.000000 -0.066198 -0.997807 0.000000 0.169362 -0.985554 0.000000 0.464834 -0.885398 0.000000 0.478097 -0.878307 0.000000 0.041660 -0.999132 0.000000 -0.402981 -0.915209 0.000000 -0.196759 -0.980452 0.000000 -0.818811 -0.574063 0.000000 0.207434 -0.978249 0.000000 0.095455 -0.995434 0.000000 -0.226543 -0.974001 0.000000 -0.968593 -0.248653 0.000000 -0.406532 -0.913636 0.000000 -0.325655 -0.945488 0.000000 0.490992 -0.871164 0.000000 -0.665280 -0.746594 0.000000 -0.731282 -0.682075 0.000000 -0.936883 -0.349643 0.000000 -0.807199 -0.590279 0.000000 -0.593545 -0.804800 0.000000 -0.928882 -0.370375 0.000000 -0.516440 0.856323 0.000000 -0.942156 -0.335176 0.000000 0.451296 0.892374 0.000000 0.838208 0.545351 0.000000 -0.999023 -0.044182 0.000000 -0.947815 -0.318822 0.000000 -0.813925 -0.580970 0.000000 -0.824547 0.565793 0.000000 0.998800 -0.048966 0.000000 0.991359 -0.131177 0.000000 0.311643 0.950199 0.000000 -0.704522 -0.709682 0.000000 -0.627624 0.778517 0.000000 -0.294311 -0.955710 0.000000 0.605740 0.795663 0.000000 -0.359024 0.933328 0.000000 0.492227 -0.870467 0.000000 -0.382700 -0.923873 0.000000 0.673040 0.739606 0.000000 -0.206740 0.978396 0.000000 -0.920252 0.391326 0.000000 0.732456 0.680814 0.000000 0.117778 -0.993040 0.000000 -0.297650 -0.954675 0.000000 0.997086 0.076292 0.000000 0.486700 0.873569 0.000000 0.609599 0.792710 0.000000 0.667007 0.745051 0.000000 0.784222 0.620480 0.000000 -0.955316 -0.295585 0.000000 -0.995916 0.090284 0.000000 -0.821486 0.570229 0.000000 -0.912939 0.408095 0.000000 -0.293569 -0.955938 0.000000 -0.722606 -0.691260 0.000000 -0.590045 -0.807370 0.000000 -0.906298 -0.422638 0.000000 -0.565177 -0.824970 0.000000 0.615220 -0.788356 0.000000 -0.745842 -0.666123 0.000000 0.911573 -0.411137 0.000000 0.929702 -0.368313 0.000000 0.087139 -0.996196 0.000000 0.916876 -0.399173 0.000000 0.393109 -0.919492 0.000000 0.282938 -0.959138 0.000000 0.397427 -0.917634 0.000000 -0.062075 -0.998071 0.000000 0.146040 -0.989279 0.000000 0.341911 -0.939732 0.000000 0.525234 -0.850958 0.000000 0.025705 -0.999670 0.000000 -0.265726 -0.964049 0.000000 -0.494136 -0.869385 0.000000 -0.402053 -0.915616 0.000000 -0.656325 -0.754478 0.000000 0.853768 -0.520654 0.000000 -0.774482 -0.632595 0.000000 -0.015156 -0.999885 0.000000 0.722526 -0.691344 0.000000 -0.454944 -0.890520 0.000000 -0.863357 -0.504593 0.000000 -0.533823 -0.845596 0.000000 -0.970853 -0.239674 0.000000 -0.816104 -0.577905 0.000000 -0.731080 -0.682292 0.000000 0.008438 -0.999964 0.000000 -0.917350 -0.398081 0.000000 -0.921470 -0.388449 0.000000 -0.738613 0.674130 0.000000 0.604126 0.796889 0.000000 0.840829 -0.541301 0.000000 -0.908278 -0.418367 0.000000 -0.901280 -0.433237 0.000000 -0.274452 0.961601 0.000000 -0.392808 0.919621 0.000000 -0.686974 0.726682 0.000000 0.995540 0.094343 0.000000 -0.818033 -0.575172 0.000000 -0.916177 0.400775 0.000000 0.804207 -0.594350 0.000000 -0.748430 0.663213 0.000000 0.309023 0.951055 0.000000 -0.339706 -0.940532 0.000000 0.448925 0.893569 0.000000 -0.519839 0.854264 0.000000 -0.764783 0.644288 0.000000 0.232052 0.972703 0.000000 -0.713742 0.700409 0.000000 -0.516873 0.856062 0.000000 0.252437 0.967613 0.000000 0.999559 0.029708 0.000000 0.704730 0.709475 0.000000 0.238042 0.971255 0.000000 0.999981 0.006214 0.000000 -0.197891 0.980224 0.000000 -0.825403 0.564544 0.000000 0.572659 0.819794 0.000000 -0.866968 0.498363 0.000000 0.607620 0.794228 0.000000 -0.165088 0.986279 0.000000 0.497940 0.867211 0.000000 0.842308 0.538997 0.000000 -0.892916 -0.450223 0.000000 -0.927179 0.374618 0.000000 -0.928022 0.372526 0.000000 -0.751968 -0.659200 0.000000 -0.387820 -0.921735 0.000000 -0.542981 -0.839745 0.000000 -0.258060 -0.966129 0.000000 0.865278 -0.501292 0.000000 -0.703797 0.710401 0.000000 -0.310523 0.950566 0.000000 0.325889 -0.945408 0.000000 0.249111 -0.968475 0.000000 -0.156457 -0.987685 0.000000 0.425912 -0.904764 0.000000 0.591065 -0.806624 0.000000 -0.187535 -0.982258 0.000000 0.432054 -0.901848 0.000000 -0.278178 -0.960529 0.000000 0.161397 -0.986890 0.000000 0.264547 -0.964373 0.000000 0.882714 -0.469911 0.000000 -0.863026 -0.505160 0.000000 -0.442528 -0.896755 0.000000 -0.100924 -0.994894 0.000000 -0.899034 -0.437880 0.000000 -0.712817 -0.701350 0.000000 -0.575379 -0.817887 0.000000 -0.817974 -0.575255 0.000000 -0.878767 -0.477252 0.000000 -0.842766 -0.538280 0.000000 0.997952 -0.063967 0.000000 -0.805798 -0.592190 0.000000 0.999808 -0.019575 0.000000 -0.933898 -0.357541 0.000000 0.991507 0.130056 0.000000 0.999999 0.001683 0.000000 0.478220 0.878240 0.000000 -0.997732 -0.067310 0.000000 0.066060 0.997816 0.000000 -0.418826 -0.908067 0.000000 0.964767 0.263104 0.000000 -0.086428 0.996258 0.000000 -0.967079 -0.254476 0.000000 0.383699 -0.923458 0.000000 -0.639428 -0.768851 0.000000 -0.999035 0.043928 0.000000 -0.123464 -0.992349 0.000000 -0.523954 0.851746 0.000000 0.846809 0.531898 0.000000 0.929118 0.369785 0.000000 0.998680 0.051372 0.000000 0.298034 0.954555 0.000000 0.666431 0.745567 0.000000 -0.125326 0.992116 0.000000 0.891748 0.452532 0.000000 -0.928331 0.371755 0.000000 -0.721739 0.692165 0.000000 0.261677 0.965156 0.000000 -0.237285 0.971440 0.000000 0.414225 0.910175 0.000000 -0.871885 0.489711 0.000000 0.919782 0.392429 0.000000 -0.160169 0.987090 0.000000 -0.526346 0.850270 0.000000 -0.481475 0.876460 0.000000 0.747587 0.664164 0.000000 0.886516 0.462698 0.000000 -0.147471 -0.989066 0.000000 -0.579739 -0.814802 0.000000 -0.736576 0.676355 0.000000 0.747581 0.664171 0.000000 -0.582345 0.812942 0.000000 -0.224630 -0.974444 0.000000 0.761925 0.647666 0.000000 0.009316 0.999957 0.000000 -0.954648 0.297736 0.000000 -0.944621 0.328164 0.000000 0.242629 -0.970119 0.000000 -0.455049 -0.890466 0.000000 0.342923 -0.939364 0.000000 -0.369518 -0.929223 0.000000 0.178797 -0.983886 0.000000 0.257327 0.966324 0.000000 0.687029 0.726630 0.000000 0.231874 -0.972746 0.000000 -0.997300 -0.073434 0.000000 0.090114 -0.995931 0.000000 -0.190542 -0.981679 0.000000 0.646188 -0.763178 0.000000 0.148396 -0.988928 0.000000 -0.205707 -0.978614 0.000000 -0.007899 -0.999969 0.000000 -0.444545 -0.895756 0.000000 0.022604 -0.999744 0.000000 0.187115 -0.982338 0.000000 0.259020 -0.965872 0.000000 -0.670970 -0.741485 0.000000 -0.856663 -0.515876 0.000000 0.206997 -0.978342 0.000000 0.334488 -0.942400 0.000000 -0.771788 -0.635880 0.000000 -0.597993 -0.801502 0.000000 -0.673030 -0.739615 0.000000 -0.653481 -0.756943 0.000000 -0.747676 -0.664064 0.000000 -0.901802 -0.432149 0.000000 -0.862388 -0.506248 0.000000 -0.934599 -0.355703 0.000000 0.624218 0.781251 0.000000 -0.817909 -0.575348 0.000000 -0.498867 -0.866679 0.000000 0.399524 -0.916723 0.000000 0.243016 -0.970022 0.000000 -0.735223 -0.677825 0.000000 0.672224 0.740348 0.000000 0.237382 -0.971416 0.000000 -0.484716 -0.874671 0.000000 0.974417 -0.224749 0.000000 -0.886196 0.463310 0.000000 -0.136705 0.990612 0.000000 -0.389025 -0.921227 0.000000 -0.858713 -0.512457 0.000000 0.867583 0.497292 0.000000 0.938729 0.344655 0.000000 0.830370 0.557212 0.000000 0.314168 0.949367 0.000000 0.937574 0.347786 0.000000 0.212596 0.977140 0.000000 0.707495 0.706718 0.000000 -0.824261 0.566211 0.000000 0.995962 0.089775 0.000000 0.991018 0.133730 0.000000 0.064358 -0.997927 0.000000 0.566692 -0.823930 0.000000 -0.084858 0.996393 0.000000 0.989183 0.146687 0.000000 0.899783 -0.436337 0.000000 -0.953795 -0.300458 0.000000 0.781949 0.623342 0.000000 -0.382009 0.924159 0.000000 0.825020 0.565103 0.000000 -0.991807 -0.127742 0.000000 -0.984674 -0.174403 0.000000 -0.878605 -0.477549 0.000000 0.993320 -0.115395 0.000000 -0.602094 0.798425 0.000000 0.947521 -0.319693 0.000000 0.930834 -0.365441 0.000000 -0.524859 0.851189 0.000000 0.744284 -0.667863 0.000000 0.533696 -0.845676 0.000000 0.787442 -0.616389 0.000000 0.986463 0.163982 0.000000 -0.788316 -0.615270 0.000000 0.662720 -0.748867 0.000000 -0.867779 -0.496950 0.000000 0.357024 -0.934095 0.000000 0.730036 -0.683409 0.000000 -0.178120 -0.984009 0.000000 -0.472276 0.881451 0.000000 0.678858 -0.734270 0.000000 0.971958 -0.235155 0.000000 -0.183442 -0.983031 0.000000 0.697744 -0.716347 0.000000 -0.266131 -0.963937 0.000000 0.030987 -0.999520 0.000000 -0.794353 -0.607457 0.000000 -0.179725 -0.983717 0.000000 -0.723122 -0.690720 0.000000 -0.968957 -0.247228 0.000000 -0.549180 -0.835704 0.000000 -0.108547 -0.994091 0.000000 -0.973163 -0.230115 0.000000 -0.124218 -0.992255 0.000000 -0.689240 -0.724533 0.000000 -0.238166 -0.971225 0.000000 -0.676143 -0.736771 0.000000 0.906998 -0.421134 0.000000 0.163474 -0.986548 0.000000 -0.746927 -0.664906 0.000000 -0.794843 -0.606816 0.000000 0.005301 -0.999986 0.000000 -0.605837 -0.795589 0.000000 0.088839 -0.996046 0.000000 -0.873031 0.487665 0.000000 -0.736300 -0.676656 0.000000 -0.538685 -0.842507 0.000000 -0.772273 -0.635290 0.000000 -0.718119 -0.695921 0.000000 -0.871766 -0.489923 0.000000 -0.190493 0.981689 0.000000 0.900600 0.434649 0.000000 -0.452476 0.891776 0.000000 -0.997220 0.074511 0.000000 0.567000 0.823718 0.000000 -0.141597 -0.989924 0.000000 -0.385379 0.922758 0.000000 0.370603 0.928791 0.000000 0.972239 0.233991 0.000000 0.997706 0.067695 0.000000 -0.810590 0.585614 0.000000 -0.994474 0.104988 0.000000 0.142972 0.989727 0.000000 -0.230026 0.973184 0.000000 0.791300 0.611429 0.000000 -0.869640 0.493687 0.000000 0.220294 0.975433 0.000000 -0.999144 -0.041371 0.000000 -0.944058 -0.329780 0.000000 -0.282871 0.959158 0.000000 0.626904 0.779097 0.000000 -0.772646 0.634837 0.000000 0.413499 0.910505 0.000000 0.992291 0.123927 0.000000 0.522558 -0.852604 0.000000 0.984847 -0.173424 0.000000 0.994843 0.101427 0.000000 -0.018733 0.999825 0.000000 -0.201382 0.979513 0.000000 0.964527 0.263985 0.000000 -0.652537 -0.757757 0.000000 -0.802970 0.596020 0.000000 0.998477 -0.055164 0.000000 0.427336 0.904093 0.000000 0.616067 0.787693 0.000000 0.073944 0.997262 0.000000 0.989161 -0.146834 0.000000 -0.972946 -0.231033 0.000000 0.729665 -0.683805 0.000000 0.601512 -0.798864 0.000000 0.999303 -0.037334 0.000000 -0.239978 -0.970778 0.000000 -0.973657 -0.228016 0.000000 0.979605 -0.200931 0.000000 0.191513 -0.981490 0.000000 -0.279546 0.960132 0.000000 0.297448 -0.954738 0.000000 0.961070 -0.276304 0.000000 0.366431 -0.930445 0.000000 0.785824 -0.618451 0.000000 0.660874 -0.750497 0.000000 0.199227 -0.979953 0.000000 0.894570 0.446928 0.000000 -0.347386 -0.937722 0.000000 0.924237 0.381820 0.000000 -0.648684 -0.761058 0.000000 -0.353431 -0.935461 0.000000 0.500333 -0.865833 0.000000 -0.131338 -0.991338 0.000000 0.996235 -0.086690 0.000000 -0.995989 -0.089470 0.000000 -0.701138 -0.713026 0.000000 0.849761 -0.527168 0.000000 -0.882402 -0.470496 0.000000 -0.432870 -0.901456 0.000000 -0.884731 -0.466102 0.000000 -0.457497 -0.889211 0.000000 -0.989049 -0.147590 0.000000 0.824943 -0.565216 0.000000 -0.238014 0.971262 0.000000 0.150212 -0.988654 0.000000 0.934112 -0.356980 0.000000 0.787432 0.616402 0.000000 -0.090008 0.995941 0.000000 0.800438 -0.599415 0.000000 -0.963751 -0.266805 0.000000 -0.764347 -0.644805 0.000000 -0.527769 -0.849388 0.000000 0.929594 -0.368584 0.000000 -0.627518 -0.778602 0.000000 -0.438660 -0.898653 0.000000 -0.345438 -0.938442 0.000000 -0.303616 -0.952795 0.000000 -0.619950 0.784641 0.000000 0.809019 0.587782 0.000000 0.655411 -0.755273 0.000000 -0.977800 0.209540 0.000000 -0.886503 0.462723 0.000000 0.279318 0.960199 0.000000 0.553407 0.832911 0.000000 -0.711631 0.702554 0.000000 -0.493538 0.869724 0.000000 0.842395 0.538861 0.000000 0.486224 0.873834 0.000000 0.987694 0.156399 0.000000 -0.895156 0.445753 0.000000 -0.439235 0.898372 0.000000 0.815295 0.579045 0.000000 0.155962 0.987763 0.000000 -0.669853 0.742494 0.000000 -0.867402 0.497608 0.000000 0.606145 0.795354 0.000000 0.560213 0.828348 0.000000 0.729566 -0.683910 0.000000 -0.112081 0.993699 0.000000 -0.863603 0.504172 0.000000 0.673400 -0.739279 0.000000 -0.800084 0.599887 0.000000 -0.966092 -0.258200 0.000000 0.978559 -0.205968 0.000000 0.589272 0.807934 0.000000 -0.559641 -0.828735 0.000000 -0.913331 0.407218 0.000000 -0.213064 -0.977038 0.000000 0.688692 -0.725054 0.000000 -0.941151 0.337985 0.000000 -0.300875 0.953664 0.000000 0.513186 0.858277 0.000000 0.973632 -0.228124 0.000000 0.485488 0.874243 0.000000 0.903679 -0.428211 0.000000 -0.953260 0.302150 0.000000 0.382645 0.923895 0.000000 0.932337 0.361591 0.000000 -0.974447 -0.224617 0.000000 0.428842 -0.903379 0.000000 0.936041 -0.351890 0.000000 -0.955688 0.294383 0.000000 0.787865 0.615848 0.000000 -0.978139 0.207954 0.000000 -0.876419 0.481549 0.000000 0.709689 0.704515 0.000000 0.509795 -0.860296 0.000000 0.864140 -0.503251 0.000000 -0.987797 -0.155747 0.000000 0.706772 0.707442 0.000000 0.841812 -0.539770 0.000000 0.998201 -0.059962 0.000000 -0.954024 -0.299731 0.000000 -0.866723 -0.498790 0.000000 0.972958 -0.230984 0.000000 -0.984940 0.172895 0.000000 -0.612930 -0.790137 0.000000 0.111416 -0.993774 0.000000 0.886002 0.463682 0.000000 -0.876186 -0.481973 0.000000 -0.558943 -0.829206 0.000000 0.990953 -0.134212 0.000000 -0.012907 -0.999917 0.000000 0.207396 -0.978257 0.000000 0.999377 -0.035299 0.000000 -0.570746 0.821126 0.000000 -0.981809 -0.189871 0.000000 0.639264 -0.768987 0.000000 -0.768120 0.640306 0.000000 -0.647950 -0.761683 0.000000 0.769901 0.638164 0.000000 -0.931686 -0.363264 0.000000 0.573391 0.819282 0.000000 0.979053 0.203607 0.000000 -0.665518 0.746381 0.000000 0.761636 0.648005 0.000000 0.175696 0.984445 0.000000 0.389418 -0.921061 0.000000 -0.799582 0.600557 0.000000 -0.674496 -0.738278 0.000000 -0.982914 -0.184067 0.000000 0.790245 0.612792 0.000000 -0.496042 0.868299 0.000000 -0.542492 -0.840061 0.000000 0.936165 -0.351561 0.000000 -0.091738 0.995783 0.000000 -0.996164 0.087508 0.000000 -0.472349 0.881411 0.000000 -0.744786 0.667304 0.000000 0.733460 0.679733 0.000000 0.573344 0.819315 0.000000 -0.998713 0.050725 0.000000 0.967173 0.254121 0.000000 0.699412 0.714718 0.000000 -0.781091 0.624417 0.000000 -0.396882 0.917870 0.000000 -0.673781 0.738931 0.000000 -0.770390 0.637573 0.000000 -0.320019 -0.947411 0.000000 0.632984 -0.774165 0.000000 -0.999448 -0.033215 0.000000 0.973188 -0.230011 0.000000 -0.147824 -0.989014 0.000000 0.975241 -0.221145 0.000000 0.882383 0.470532 0.000000 -0.744255 -0.667896 0.000000 0.003825 -0.999993 0.000000 -0.892342 0.451359 0.000000 -0.989736 0.142909 0.000000 0.820875 0.571108 0.000000 -0.566438 0.824105 0.000000 -0.917905 -0.396800 0.000000 0.856951 0.515398 0.000000 0.828949 0.559325 0.000000 0.917325 -0.398139 0.000000 0.741581 -0.670863 0.000000 0.954316 0.298801 0.000000 0.946010 -0.324137 0.000000 -0.311831 0.950138 0.000000 0.987548 -0.157318 0.000000 0.694938 -0.719070 0.000000 0.587530 -0.809203 0.000000 0.393104 -0.919494 0.000000 0.076395 0.997078 0.000000 -0.893292 -0.449477 0.000000 -0.945216 -0.326447 0.000000 0.999246 -0.038818 0.000000 -0.945803 0.324740 0.000000 -0.936396 -0.350945 0.000000 -0.202844 -0.979211 0.000000 0.703426 -0.710769 0.000000 0.864181 -0.503181 0.000000 0.986897 -0.161352 0.000000 0.692326 0.721585 0.000000 -0.449416 -0.893322 0.000000 -0.405411 -0.914134 0.000000 0.819691 0.572806 0.000000 -0.843823 -0.536622 0.000000 -0.143353 -0.989672 0.000000 -0.999985 -0.005527 0.000000 0.181535 -0.983384 0.000000 -0.296684 -0.954976 0.000000 0.690880 -0.722970 0.000000 -0.982348 -0.187063 0.000000 -0.983834 0.179084 0.000000 -0.970253 -0.242092 0.000000 -0.919410 0.393301 0.000000 0.015921 0.999873 0.000000 0.652697 0.757619 0.000000 -0.875080 0.483979 0.000000 -0.559175 0.829050 0.000000 0.994786 0.101981 0.000000 0.153892 0.988088 0.000000 -0.067038 -0.997750 0.000000 0.498646 0.866805 0.000000 -0.090451 0.995901 0.000000 0.553351 0.832948 0.000000 -0.618306 0.785937 0.000000 0.057879 0.998324 0.000000 0.262089 0.965044 0.000000 0.087433 0.996170 0.000000 -0.170164 0.985416 0.000000 -0.596061 0.802939 0.000000 0.300720 0.953712 0.000000 0.160254 0.987076 0.000000 0.764671 0.644421 0.000000 -0.914763 0.403991 0.000000 -0.542704 0.839924 0.000000 -0.987836 0.155500 0.000000 -0.611190 0.791484 0.000000 -0.551179 0.834387 0.000000 0.525955 0.850512 0.000000 -0.626955 0.779055 0.000000 0.292098 0.956389 0.000000 -0.997724 0.067435 0.000000 0.578881 -0.815412 0.000000 0.340474 0.940254 0.000000 -0.712315 -0.701860 0.000000 0.419881 -0.907579 0.000000 -0.048649 -0.998816 0.000000 0.559063 0.829125 0.000000 0.664172 0.747580 0.000000 -0.896880 -0.442273 0.000000 -0.972415 0.233257 0.000000 0.537652 -0.843167 0.000000 0.351550 -0.936169 0.000000 0.997066 -0.076546 0.000000 0.982218 -0.187742 0.000000 0.963264 -0.268556 0.000000 -0.451352 -0.892346 0.000000 0.808054 0.589108 0.000000 -0.415901 0.909410 0.000000 -0.853078 -0.521783 0.000000 -0.633719 0.773563 0.000000 0.858239 0.513250 0.000000 -0.969641 0.244534 0.000000 0.798842 0.601541 0.000000 -0.249757 0.968309 0.000000 -0.460525 -0.887647 0.000000 0.435490 -0.900194 0.000000 0.819026 -0.573757 0.000000 0.396120 -0.918199 0.000000 -0.928593 0.371101 0.000000 0.935615 -0.353021 0.000000 0.897629 0.440752 0.000000 -0.880022 -0.474932 0.000000 0.434854 0.900501 0.000000 0.179153 -0.983821 0.000000 0.854490 -0.519467 0.000000 -0.947946 -0.318431 0.000000 0.947715 -0.319117 0.000000 0.693803 -0.720165 0.000000 0.969744 -0.244123 0.000000 0.779087 -0.626916 0.000000 -0.878732 -0.477315 0.000000 -0.962870 -0.269967 0.000000 0.858422 -0.512945 0.000000 0.991046 -0.133522 0.000000 -0.529757 -0.848149 0.000000 0.656083 -0.754688 0.000000 0.789923 -0.613206 0.000000 0.459151 0.888358 0.000000 -0.675757 -0.737124 0.000000 0.975165 0.221481 0.000000 -0.260680 -0.965425 0.000000 0.733113 -0.680107 0.000000 -0.813595 -0.581432 0.000000 -0.538434 -0.842668 0.000000 0.996586 -0.082561 0.000000 -0.982191 -0.187887 0.000000 -0.869377 -0.494150 0.000000 0.975041 -0.222025 0.000000 -0.317466 0.948270 0.000000 0.982142 -0.188141 0.000000 -0.424420 0.905465 0.000000 -0.826435 -0.563032 0.000000 0.349412 -0.936969 0.000000 0.208501 0.978022 0.000000 -0.149709 -0.988730 0.000000 0.908676 0.417503 0.000000 -0.343055 0.939315 0.000000 -0.615081 0.788464 0.000000 0.779700 0.626153 0.000000 0.548356 0.836245 0.000000 -0.406411 -0.913690 0.000000 -0.973465 0.228834 0.000000 0.922134 0.386871 0.000000 0.382236 0.924065 0.000000 0.503735 0.863858 0.000000 -0.602300 0.798270 0.000000 0.985673 0.168669 0.000000 0.177159 0.984182 0.000000 0.984411 0.175886 0.000000 -0.605561 0.795799 0.000000 0.878457 0.477821 0.000000 0.512329 0.858789 0.000000 -0.065271 -0.997868 0.000000 0.570397 0.821369 0.000000 0.977986 0.208670 0.000000 -0.604138 0.796880 0.000000 -0.852678 -0.522437 0.000000 -0.842271 0.539055 0.000000 -0.942806 -0.333342 0.000000 0.467138 -0.884185 0.000000 -0.032280 0.999479 0.000000 0.641340 -0.767257 0.000000 0.263299 -0.964714 0.000000 0.951532 -0.307550 0.000000 0.488899 -0.872340 0.000000 -0.998284 -0.058551 0.000000 0.460687 0.887563 0.000000 0.475846 -0.879529 0.000000 -0.969086 0.246722 0.000000 -0.944460 0.328625 0.000000 -0.303535 -0.952820 0.000000 -0.963281 0.268496 0.000000 -0.964109 0.265507 0.000000 -0.594335 -0.804217 0.000000 0.967811 -0.251679 0.000000 0.761631 0.648011 0.000000 -0.676587 -0.736362 0.000000 -0.816865 0.576830 0.000000 -0.821208 -0.570629 0.000000 -0.986765 -0.162155 0.000000 0.428621 0.903484 0.000000 0.768294 0.640097 0.000000 -0.046951 -0.998897 0.000000 -0.175157 -0.984540 0.000000 0.209157 -0.977882 0.000000 0.781211 -0.624267 0.000000 0.973575 -0.228366 0.000000 -0.697411 0.716672 0.000000 -0.988383 0.151982 0.000000 -0.566031 -0.824384 0.000000 0.821436 0.570301 0.000000 0.554886 -0.831926 0.000000 -0.576718 -0.816943 0.000000 -0.550997 0.834507 0.000000 -0.956172 -0.292805 0.000000 -0.995983 -0.089547 0.000000 0.997196 -0.074833 0.000000 -0.884965 0.465658 0.000000 0.790216 -0.612828 0.000000 0.999019 -0.044284 0.000000 -0.930282 -0.366845 0.000000 -0.733915 0.679242 0.000000 0.361402 -0.932410 0.000000 0.732090 0.681208 0.000000 0.227553 -0.973766 0.000000 0.473731 -0.880670 0.000000 0.644675 -0.764457 0.000000 0.997787 -0.066488 0.000000 0.534187 -0.845366 0.000000 0.836021 -0.548697 0.000000 0.964457 -0.264240 0.000000 0.600884 -0.799336 0.000000 0.201252 -0.979540 0.000000 0.058006 -0.998316 0.000000 -0.956630 -0.291307 0.000000 -0.972520 -0.232821 0.000000 0.984723 0.174126 0.000000 -0.991713 -0.128473 0.000000 0.563174 0.826339 0.000000