<?xml version='1.0'?>
<VTKFile type='PolyData' version='0.1' byte_order='LittleEndian'><PolyData>
<Piece NumberOfPoints='9000' NumberOfVerts='0' NumberOfLines='0' NumberOfStrips='0' NumberOfPolys='3000'>
<Points>
<DataArray type='Float32' NumberOfComponents='3' format='ascii'>
10.762070 49.154926 0.000000 7.752847 49.809092 0.000000 8.864017 47.677211 0.000000 4.604641 49.831829 0.000000 6.634894 47.191402 0.000000 7.676784 49.619009 0.000000 8.941790 47.487412 0.000000 7.677763 49.532370 0.000000 6.611326 47.115446 0.000000 6.599139 47.112670 0.000000 4.628304 49.797659 0.000000 4.636684 47.220625 0.000000 1.636932 49.905110 0.000000 2.596119 47.050428 0.000000 4.612651 49.796313 0.000000 4.609613 47.220051 0.000000 4.615321 49.797108 0.000000 2.597503 47.052167 0.000000 2.516114 47.023745 0.000000 1.635336 49.903588 0.000000 -0.338517 47.630963 0.000000 -1.650748 49.904812 0.000000 -0.339978 47.630908 0.000000 1.632591 49.904646 0.000000 -0.345926 47.626324 0.000000 -1.650780 49.903629 0.000000 -2.919136 47.822969 0.000000 -4.629325 49.903586 0.000000 -3.043423 47.903815 0.000000 -1.651636 49.903997 0.000000 -3.039193 47.897181 0.000000 -4.644499 49.881403 0.000000 -4.638572 47.910630 0.000000 -7.739945 49.671881 0.000000 -6.246885 47.858084 0.000000 -4.665960 49.856164 0.000000 -4.650474 47.874349 0.000000 -4.652891 49.845130 0.000000 -6.217486 47.834231 0.000000 -6.171902 47.770015 0.000000 -7.718052 49.538767 0.000000 -8.538456 47.315415 0.000000 -10.757537 49.222300 0.000000 -8.465441 47.552186 0.000000 -7.733922 49.806344 0.000000 20.010044 46.841580 0.000000 17.031756 47.624627 0.000000 16.839000 45.938406 0.000000 16.863013 47.596765 0.000000 13.981763 48.683853 0.000000 16.395447 45.965238 0.000000 16.315279 45.662320 0.000000 13.836151 48.321391 0.000000 13.972044 45.250545 0.000000 8.934859 47.541376 0.000000 11.040303 45.729005 0.000000 10.808025 49.050512 0.000000 10.803703 49.140163 0.000000 11.057926 45.820264 0.000000 13.785649 48.371168 0.000000 13.932150 45.192144 0.000000 13.705008 48.257591 0.000000 10.995921 45.686904 0.000000 11.059143 45.624940 0.000000 8.930429 47.409921 0.000000 8.463509 45.831418 0.000000 6.564659 47.108595 0.000000 8.460699 45.827237 0.000000 8.904988 47.412264 0.000000 8.447978 45.833285 0.000000 6.552895 47.116071 0.000000 7.003154 44.996250 0.000000 2.587059 47.050240 0.000000 4.611947 44.897450 0.000000 4.601294 47.190315 0.000000 7.011211 44.954729 0.000000 6.559153 47.074185 0.000000 4.614712 44.922676 0.000000 4.601102 47.218056 0.000000 4.617012 44.925221 0.000000 6.561453 47.076731 0.000000 4.531023 44.939800 0.000000 2.528714 47.113607 0.000000 2.381008 44.981182 0.000000 2.370764 44.897936 0.000000 2.522933 47.030049 0.000000 0.304483 45.044927 0.000000 -0.345226 47.628742 0.000000 0.290343 45.037692 0.000000 2.509510 47.022013 0.000000 0.285382 45.033763 0.000000 -0.344598 47.626178 0.000000 -1.931071 46.086115 0.000000 -2.919549 47.822997 0.000000 -1.933139 46.086226 0.000000 -0.346367 47.625982 0.000000 -6.120898 47.787221 0.000000 -4.523788 45.963536 0.000000 -4.556071 47.879384 0.000000 -1.964607 46.139591 0.000000 -2.950553 47.876625 0.000000 -4.480211 45.894624 0.000000 -4.534439 47.874988 0.000000 -4.519816 45.958857 0.000000 -2.935157 47.897163 0.000000 -8.479653 47.296149 0.000000 -6.850723 46.179197 0.000000 -6.119092 47.780881 0.000000 -4.520057 45.959266 0.000000 -6.118764 47.781533 0.000000 -6.850433 46.179858 0.000000 -6.812714 46.153493 0.000000 -8.447658 47.261621 0.000000 -8.375442 45.421999 0.000000 -13.837463 48.432516 0.000000 -11.120154 45.968421 0.000000 -10.856156 49.203985 0.000000 -8.375457 45.422147 0.000000 -8.456825 47.261384 0.000000 -11.041064 45.738694 0.000000 -10.680863 49.044338 0.000000 -11.132897 45.829647 0.000000 -8.488504 47.245297 0.000000 -11.204775 45.938149 0.000000 -13.894960 48.431829 0.000000 -13.663162 46.014642 0.000000 -19.792800 46.777595 0.000000 -16.150779 45.562113 0.000000 -16.821390 47.586350 0.000000 -16.794561 47.617845 0.000000 -15.927461 45.669669 0.000000 -13.855329 48.536687 0.000000 -13.671572 46.013739 0.000000 -13.903205 48.430942 0.000000 -15.972997 45.562234 0.000000 22.378052 45.069540 0.000000 19.634455 46.468121 0.000000 20.388159 43.900696 0.000000 20.428410 43.669711 0.000000 19.634609 46.225023 0.000000 18.199018 43.777100 0.000000 16.307196 45.740807 0.000000 18.123243 43.742323 0.000000 19.574865 46.180775 0.000000 18.156988 43.706970 0.000000 16.284073 45.652261 0.000000 15.649126 43.287627 0.000000 13.952666 45.182137 0.000000 15.648958 43.290018 0.000000 16.284440 45.654509 0.000000 11.016867 45.680755 0.000000 13.073173 43.022576 0.000000 13.952014 45.179619 0.000000 15.655770 43.280574 0.000000 13.958063 45.171423 0.000000 13.077290 43.015169 0.000000 13.116821 42.963568 0.000000 11.061559 45.622554 0.000000 10.670601 42.552564 0.000000 7.002551 44.995436 0.000000 8.731248 43.955167 0.000000 8.454844 45.819438 0.000000 10.670313 42.550304 0.000000 11.061179 45.620299 0.000000 8.730832 43.964937 0.000000 8.463488 45.830181 0.000000 8.730124 43.964487 0.000000 11.058984 45.621941 0.000000 4.612602 44.912771 0.000000 6.673470 43.042277 0.000000 7.009031 44.949720 0.000000 8.755856 43.940832 0.000000 7.009531 44.951231 0.000000 6.684099 43.042034 0.000000 6.577855 43.065245 0.000000 4.537498 44.958090 0.000000 4.661926 42.411899 0.000000 0.306705 45.043182 0.000000 2.133955 42.659876 0.000000 2.372995 44.896329 0.000000 4.649344 42.395154 0.000000 4.534714 44.941805 0.000000 2.150249 42.746191 0.000000 2.382090 44.981163 0.000000 2.147179 42.744273 0.000000 4.532098 44.939394 0.000000 2.127152 42.661480 0.000000 0.302860 45.047051 0.000000 -0.445038 42.884019 0.000000 -4.479124 45.890012 0.000000 -2.264479 44.158271 0.000000 -1.963968 46.139526 0.000000 -0.465261 42.872474 0.000000 0.286444 45.034186 0.000000 -2.233574 44.106740 0.000000 -1.932471 46.086462 0.000000 -2.236344 44.105720 0.000000 0.283613 45.033332 0.000000 -2.265440 44.158392 0.000000 -4.480293 45.889868 0.000000 -4.532278 43.101940 0.000000 -8.368254 45.424524 0.000000 -6.664176 44.379651 0.000000 -6.805809 46.156665 0.000000 -4.531653 43.161902 0.000000 -4.479397 45.949820 0.000000 -6.647512 44.349447 0.000000 -6.804843 46.147751 0.000000 -6.652300 44.371640 0.000000 -4.471877 45.955214 0.000000 -11.028204 45.714131 0.000000 -8.869412 43.552687 0.000000 -8.360147 45.418908 0.000000 -6.646449 44.367707 0.000000 -8.366723 45.385695 0.000000 -8.870130 43.517885 0.000000 -8.867257 43.550516 0.000000 -11.028601 45.709409 0.000000 -11.187353 42.640333 0.000000 -15.845906 45.451659 0.000000 -13.490636 43.980348 0.000000 -13.538619 45.872179 0.000000 -11.187450 42.654690 0.000000 -11.028001 45.723730 0.000000 -13.408224 43.903159 0.000000 -13.521332 45.831654 0.000000 -13.424325 43.941703 0.000000 -11.062185 45.785676 0.000000 -13.398333 43.924705 0.000000 -15.778871 45.354770 0.000000 -15.603552 42.561991 0.000000 -19.516724 46.206565 0.000000 -18.050998 43.484434 0.000000 -15.765780 45.386731 0.000000 -15.605976 42.561275 0.000000 -15.781083 45.354067 0.000000 -18.072705 43.459489 0.000000 -18.095656 43.479191 0.000000 -19.529542 46.218227 0.000000 -20.349383 43.683554 0.000000 -22.436235 45.086282 0.000000 -20.357117 43.968531 0.000000 -19.731109 46.557897 0.000000 27.995181 42.090204 0.000000 25.372790 43.704645 0.000000 25.787926 41.107096 0.000000 25.702819 41.108385 0.000000 25.350605 43.715212 0.000000 22.598739 41.801489 0.000000 20.424931 43.694584 0.000000 22.359105 41.503686 0.000000 22.372084 44.933321 0.000000 25.147018 43.611917 0.000000 22.467683 45.129982 0.000000 22.393110 41.701133 0.000000 18.154592 43.718978 0.000000 19.585093 42.010422 0.000000 20.385959 43.666799 0.000000 22.355024 41.501878 0.000000 20.391297 43.666326 0.000000 19.604816 42.003071 0.000000 15.655767 43.282632 0.000000 17.506214 41.467609 0.000000 18.162640 43.707840 0.000000 19.593332 42.000274 0.000000 18.162957 43.708931 0.000000 17.506676 41.468659 0.000000 17.511916 41.461196 0.000000 15.661747 43.276503 0.000000 14.948238 40.678400 0.000000 13.083701 43.007423 0.000000 14.948173 40.678969 0.000000 15.661743 43.277055 0.000000 14.982352 40.635362 0.000000 13.118310 42.964161 0.000000 12.295598 40.617450 0.000000 10.671408 42.549589 0.000000 12.294912 40.616519 0.000000 13.117167 42.963391 0.000000 12.313171 40.594769 0.000000 10.687425 42.525955 0.000000 10.298447 40.453227 0.000000 6.639444 43.018276 0.000000 8.551298 41.576660 0.000000 8.723030 43.889296 0.000000 10.297873 40.450414 0.000000 10.686816 42.523149 0.000000 8.554626 41.622101 0.000000 8.744428 43.935502 0.000000 8.558095 41.623997 0.000000 10.689061 42.527936 0.000000 8.485311 41.616901 0.000000 6.578080 43.064628 0.000000 6.176204 40.497422 0.000000 4.661618 42.411698 0.000000 6.175816 40.497074 0.000000 6.577814 43.064261 0.000000 6.172687 40.494868 0.000000 4.655978 42.407505 0.000000 3.844216 40.773254 0.000000 2.147236 42.744033 0.000000 3.828826 40.764326 0.000000 4.646687 42.395532 0.000000 3.825539 40.767091 0.000000 2.144505 42.747270 0.000000 1.984323 39.876296 0.000000 1.959746 39.792956 0.000000 2.130288 42.663333 0.000000 -0.114729 40.837546 0.000000 -0.445590 42.884067 0.000000 -0.119447 40.836640 0.000000 2.126571 42.661195 0.000000 -4.522790 43.103849 0.000000 -2.366231 41.800063 0.000000 -2.256674 44.161849 0.000000 -0.132838 40.832847 0.000000 -0.448139 42.881972 0.000000 -2.336183 41.761647 0.000000 -2.254346 44.117270 0.000000 -2.366717 41.755616 0.000000 -0.484339 42.885435 0.000000 -2.370397 41.802581 0.000000 -4.528759 43.103382 0.000000 -4.596369 40.547866 0.000000 -8.871369 43.517177 0.000000 -6.820667 41.999358 0.000000 -6.647549 44.366633 0.000000 -6.648741 44.345837 0.000000 -6.822138 41.978582 0.000000 -4.531048 43.161567 0.000000 -4.599283 40.604948 0.000000 -4.533128 43.160499 0.000000 -6.822814 41.974798 0.000000 -11.187351 42.633867 0.000000 -9.170281 41.098882 0.000000 -8.867623 43.544981 0.000000 -6.820587 41.997774 0.000000 -
[...]
<PointData Vectors='Velocity Force Displacement'>
<DataArray type='Float32' Name='Velocity' NumberOfComponents='3' format='ascii'>
1.021416 5.024504 0.000000 1.321166 6.403418 0.000000 0.344280 5.894242 0.000000 -0.050211 -0.378608 0.000000 1.652281 0.930435 0.000000 0.087026 1.602233 0.000000 1.664809 2.776530 0.000000 -0.141095 1.660295 0.000000 1.993268 0.718506 0.000000 1.761071 0.665131 0.000000 0.202217 -0.449320 0.000000 1.689367 -0.451202 0.000000 -0.119354 -1.023962 0.000000 1.008786 -0.646129 0.000000 -0.076299 0.150628 0.000000 0.954988 0.116268 0.000000 -0.023076 0.118410 0.000000 1.018682 -0.647298 0.000000 -0.287202 -1.247336 0.000000 -0.149493 -1.205311 0.000000 -0.258164 -1.110953 0.000000 -0.208898 -1.015657 0.000000 -0.214366 -1.018810 0.000000 -0.208898 -1.023554 0.000000 -0.210401 -1.207930 0.000000 -0.135090 -1.164777 0.000000 -0.203898 -1.122832 0.000000 -0.460075 -2.037521 0.000000 -0.042523 -1.649264 0.000000 -0.411727 -1.311937 0.000000 -1.477876 0.216848 0.000000 0.479570 1.800532 0.000000 -1.464628 1.794661 0.000000 -1.241795 2.720964 0.000000 -2.678783 1.518861 0.000000 -1.096029 0.247180 0.000000 -1.230305 0.994343 0.000000 0.239076 0.989405 0.000000 -1.258999 2.170878 0.000000 -3.921760 0.955929 0.000000 -2.347545 2.361242 0.000000 -4.311797 3.076535 0.000000 -1.019021 6.100544 0.000000 -0.888184 6.280107 0.000000 -1.064775 6.337414 0.000000 8.125300 12.677393 0.000000 6.729758 7.369984 0.000000 9.734670 7.026418 0.000000 3.875145 7.004608 0.000000 4.793323 9.438250 0.000000 2.497080 7.399520 0.000000 1.172966 2.775981 0.000000 2.285267 3.813021 0.000000 1.000713 3.756169 0.000000 2.567857 3.864363 0.000000 2.781859 4.112971 0.000000 2.389660 4.085544 0.000000 2.486086 4.679254 0.000000 1.688138 4.618148 0.000000 2.301258 3.962533 0.000000 0.815693 2.857764 0.000000 0.737763 2.851990 0.000000 0.803115 2.783119 0.000000 1.907471 1.577480 0.000000 1.843950 1.501726 0.000000 1.900123 1.485110 0.000000 1.158630 0.197581 0.000000 1.940705 1.310831 0.000000 0.996081 1.573092 0.000000 1.076512 1.499251 0.000000 0.619013 0.808444 0.000000 1.376110 0.977518 0.000000 1.018806 -0.749036 0.000000 1.631723 -0.172697 0.000000 0.979313 -0.175974 0.000000 1.484204 0.637304 0.000000 1.012770 0.536776 0.000000 1.491319 0.104316 0.000000 0.979427 0.101230 0.000000 1.490395 0.104860 0.000000 1.009867 0.536915 0.000000 0.017705 0.524096 0.000000 -0.081357 0.432354 0.000000 0.015751 0.425725 0.000000 -0.155569 -1.128605 0.000000 -0.180924 -1.126781 0.000000 -0.157232 -1.152858 0.000000 -0.293434 -1.194245 0.000000 -0.271932 -1.188968 0.000000 -0.288399 -1.170562 0.000000 -0.388123 -1.400182 0.000000 -0.253960 -1.367567 0.000000 -0.333665 -1.285448 0.000000 -0.189260 -1.123885 0.000000 -0.267054 -1.168069 0.000000 -0.198085 -1.239145 0.000000 -1.233496 0.942983 0.000000 -1.513339 0.791314 0.000000 -1.137415 0.686174 0.000000 -0.776184 -0.294559 0.000000 -0.662571 -0.230381 0.000000 -0.793138 -0.131374 0.000000 -0.764665 0.824876 0.000000 -1.757761 0.816010 0.000000 -0.753272 -0.002609 0.000000 -1.055073 2.262284 0.000000 -1.690882 1.647681 0.000000 -0.906499 1.420303 0.000000 -2.166454 0.118920 0.000000 -0.846822 1.234764 0.000000 -1.637219 1.625756 0.000000 -1.102406 1.189133 0.000000 -0.749006 1.714251 0.000000 -1.407469 1.701225 0.000000 -2.525145 5.485779 0.000000 -2.287392 5.747963 0.000000 -2.599581 5.773435 0.000000 -1.516889 1.727026 0.000000 -0.912095 1.731871 0.000000 -1.482028 2.637503 0.000000 0.086152 3.270760 0.000000 -2.478557 3.631370 0.000000 -1.349119 1.521665 0.000000 -3.548212 5.301406 0.000000 -3.317149 5.550677 0.000000 -3.541124 5.529198 0.000000 -4.725061 11.614076 0.000000 -6.713978 5.654157 0.000000 -3.401500 6.751627 0.000000 -2.912337 7.425546 0.000000 -3.123500 7.331560 0.000000 -2.812742 7.106962 0.000000 -3.623320 5.558356 0.000000 -3.499361 5.570234 0.000000 -3.646474 5.676377 0.000000 1.434166 4.958832 0.000000 2.332087 6.720319 0.000000 0.683720 6.236403 0.000000 1.279675 2.697412 0.000000 2.216948 2.988578 0.000000 1.319061 3.515141 0.000000 1.334829 3.674870 0.000000 0.566534 2.976696 0.000000 1.503979 2.418629 0.000000 0.874659 2.566180 0.000000 0.955677 2.644223 0.000000 0.857283 2.670672 0.000000 1.019459 2.612127 0.000000 1.091039 2.676298 0.000000 1.001589 2.700339 0.000000 0.980103 2.766480 0.000000 0.955836 2.748558 0.000000 0.975281 2.740774 0.000000 1.000846 2.530443 0.000000 1.042357 2.567660 0.000000 0.995145 2.586918 0.000000 1.740536 1.507793 0.000000 1.808477 1.567275 0.000000 1.762709 1.557427 0.000000 1.481220 0.926541 0.000000 1.828655 1.505862 0.000000 1.204521 1.414402 0.000000 1.707222 1.566624 0.000000 1.713046 1.548284 0.000000 1.727436 1.573525 0.000000 1.746581 1.606227 0.000000 1.616844 1.587199 0.000000 1.722048 1.439580 0.000000 1.536865 -0.331516 0.000000 2.216042 0.416778 0.000000 1.523453 0.538623 0.000000 1.931256 1.229970 0.000000 1.509283 0.498248 0.000000 2.306150 0.364898 0.000000 0.420394 0.868031 0.000000 0.239195 0.672712 0.000000 0.482937 0.684623 0.000000 -0.151278 -1.193049 0.000000 -0.213469 -1.240730 0.000000 -0.155110 -1.246967 0.000000 0.196869 0.550874 0.000000 0.088408 0.545728 0.000000 0.181865 0.444345 0.000000 0.015733 0.425982 0.000000 0.069538 0.420325 0.000000 0.016705 0.478102 0.000000 -0.255187 -1.320720 0.000000 -0.175663 -1.259903 0.000000 -0.247765 -1.234985 0.000000 -0.772372 -0.237628 0.000000 -0.880046 -0.379248 0.000000 -0.754201 -0.399020 0.000000 -0.529128 -1.379047 0.000000 -0.399373 -1.424161 0.000000 -0.455030 -1.272889 0.000000 -0.362981 -1.291645 0.000000 -0.464289 -1.276104 0.000000 -0.416845 -1.404991 0.000000 -0.868825 -0.335210 0.000000 -0.777631 -0.218585 0.000000 -0.924546 -0.215863 0.000000 -1.167625 1.659133 0.000000 -1.476253 1.160397 0.000000 -0.954291 1.201854 0.000000 -0.904428 0.768064 0.000000 -0.802571 0.755776 0.000000 -0.863379 0.844617 0.000000 -0.957038 1.374994 0.000000 -1.553239 1.323200 0.000000 -1.025491 0.596412 0.000000 -0.792306 2.038446 0.000000 -0.950440 1.880506 0.000000 -0.813905 1.843248 0.000000 -0.982590 1.200567 0.000000 -0.998664 1.173402 0.000000 -0.969170 1.165453 0.000000 -0.888543 1.817822 0.000000 -0.825404 1.881034 0.000000 -0.915163 1.885677 0.000000 -1.609504 3.806516 0.000000 -1.879349 3.374546 0.000000 -1.532378 3.383347 0.000000 -0.887861 2.095982 0.000000 -0.824089 2.092669 0.000000 -0.861920 2.142119 0.000000 -1.237108 2.524243 0.000000 -0.964811 2.538219 0.000000 -1.230483 2.878547 0.000000 -0.639192 2.594759 0.000000 -0.623229 2.621333 0.000000 -0.654404 2.619376 0.000000 -0.383547 2.776354 0.000000 -0.297206 2.822845 0.000000 -0.357543 2.895328 0.000000 -0.575560 2.524412 0.000000 -0.726271 2.514963 0.000000 -0.624031 2.391297 0.000000 -0.965357 2.640823 0.000000 -0.511051 2.878654 0.000000 -0.931462 3.014635 0.000000 -2.324478 5.227099 0.000000 -1.128968 7.450784 0.000000 -3.898392 8.120362 0.000000 6.184544 6.694698 0.000000 6.101607 6.559980 0.000000 6.235048 6.581306 0.000000 4.762112 6.564521 0.000000 5.718832 6.693790 0.000000 5.016480 7.703736 0.000000 1.237231 2.995718 0.000000 1.083601 2.860090 0.000000 1.324094 2.859180 0.000000 2.329176 4.988771 0.000000 2.891906 5.981983 0.000000 1.620859 6.009620 0.000000 0.935075 2.603798 0.000000 0.918712 2.590098 0.000000 0.934575 2.582428 0.000000 1.047670 2.958934 0.000000 0.772324 2.709124 0.000000 0.983911 2.609073 0.000000 0.976712 2.562368 0.000000 0.982527 2.567953 0.000000 0.975900 2.569731 0.000000 0.970175 2.573958 0.000000 0.977895 2.578378 0.000000 0.968616 2.580849 0.000000 1.032118 2.438384 0.000000 1.042365 2.448820 0.000000 1.027706 2.452851 0.000000 0.986748 2.461861 0.000000 0.972574 2.450938 0.000000 0.988843 2.446520 0.000000 1.748377 1.563928 0.000000 1.825607 1.625746 0.000000 1.747783 1.653030 0.000000 1.842807 1.614118 0.000000 1.760202 1.544870 0.000000 1.860379 1.509641 0.000000 1.987927 1.180726 0.000000 2.031775 1.215455 0.000000 1.985757 1.224567 0.000000 1.744796 -0.186236 0.000000 1.996659 0.147827 0.000000 1.592612 0.177822 0.000000 2.023371 1.197489 0.000000 2.052323 1.192063 0.000000 2.039761 1.221829 0.000000 1.914686 1.240802 0.000000 2.066178 1.228590 0.000000 2.006936 1.368250 0.000000 0.542977 1.005311 0.000000 0.400798 0.818005 0.000000 0.652919 0.778537 0.000000 0.479708 0.678690 0.000000 0.643801 0.808464 0.000000 0.423780 0.842918 0.000000 0.542305 0.831857 0.000000 0.289522 0.631403 0.000000 0.505511 0.524117 0.000000 0.080149 0.178077 0.000000 0.384721 0.433829 0.000000 0.132268 0.560350 0.000000 0.213726 0.522187 0.000000 0.056107 0.385861 0.000000 0.283918 0.377169 0.000000 -0.277625 -1.330786 0.000000 -0.168187 -1.337538 0.000000 -0.237694 -1.251216 0.000000 -0.247786 -1.235257 0.000000 -0.334323 -1.249045 0.000000 -0.257209 -1.343975 0.000000 -0.845402 -0.247536 0.000000 -0.898413 -0.335210 0.000000 -0.802418 -0.339650 0.000000 -0.529411 -1.302913 0.000000 -0.206108 -1.253166 0.000000 -0.382869 -0.955278 0.000000 -0.780815 -1.097378 0.000000 -0.817890 -1.095614 0.000000 -0.800153 -1.125166 0.000000 -0.928256 -0.321745 0.000000 -0.948489 -0.355325 0.000000 -0.908744 -0.356375 0.000000 -0.936073 1.133793 0.000000 -0.964816 1.094906 0.000000 -0.919905 1.091598 0.000000 -0.925768 0.831089 0.000000 -0.956391 0.833146 0.000000 -0.940855 0.800479 0.000000 -0.913774 0.800882 0.000000 -0.878631 0.810890 0.000000 -0.890263 0.841199 0.000000 -0.900588 1.823580 0.000000 -0.949954 1.758722 0.000000 -0.871235 1.749002 0.000000 -0.966326 1.124169 0.000000 -0.945484 1.152377 0.000000 -0.979229 1.156555 0.000000 -0.912333 1.704256 0.000000 -0.915140 1.700557 0.000000 -0.910728 1.700345 0.000000 -0.939887 2.237659 0.000000 -0.998440 2.125801 0.000000 -0.872994 2.128523 0.000000 -0.864019 2.114333 0.000000 -0.974156 2.111916 0.000000 -0.918344 2.018187 0.000000 -0.917649 1.926711 0.000000 -0.946696 1.928094 0.000000 -0.931049 1.902078 0.000000 -0.877272 2.038944 0.000000 -0.891637 2.011337 0.000000 -0.862044 2.013433 0.000000 -0.873019 2.167631 0.000000 -0.896325 2.165967 0.000000 -0.882439 2.146705 0.000000 -0.649129 2.388289 0.000000 -0.658344 2.386492 0.000000 -0.652646 2.378603 0.000000 -0.608467 2.391520 0.000000 -0.685589 2.376515 0.000000 -0.634179 2.327132 0.000000 -0.555359 2.513275 0.000000 -0.481086 2.545447 0.000000 -0.547789 2.609146 0.000000 -2.659135 4.652831 0.000000 -2.701070 4.579588 0.000000 -2.622454 4.584394 0.000000 -1.069226 3.335164 0.000000 -1.214408 3.271477 0.000000 -1.058165 3.122298 0.000000 -1.947564 3.741596 0.000000 -1.214969 3.795593 0.000000 -1.658100 4.215250 0.000000 -0.929277 2.928511 0.000000 -0.824973 3.109787 0.000000 -1.011498 3.115704 0.000000 -2.813948 5.051114 0.000000 -2.907506 4.878482 0.000000 -2.703714 4.872112 0.000000 8.207569 7.071585 0.000000 6.782801 5.110618 0.000000 8.014802 5.083809 0.000000 2.320359 4.340391 0.000000 2.627115 4.732799 0.000000 2.151742 4.710828 0.000000 3.819506 5.074581 0.000000 3.414139 5.063096 0.000000 3.561530 4.715630 0.000000 2.383501 4.389754 0.000000 2.426018 4.386497 0.000000 2.397936 4.452379 0.000000 2.139225 4.356883 0.000000 2.070102 4.269610 0.000000 2.159063 4.232501 0.000000 1.968369 4.469691 0.000000 1.836219 4.376202 0.000000 1.940360 4.331923 0.000000 1.165719 2.914060 0.000000 1.127500 2.886554 0.000000 1.162496 2.880524 0.000000 0.946385 2.598941 0.000000 0.922034 2.570468 0.000000 0.953745 2.569763 0.000000 1.071029 2.606510 0.000000 0.655582 2.676070 0.000000 0.930725 2.253910 0.000000 0.954920 2.581567 0.000000 1.276996 2.579389 0.000000 1.020886 2.965912 0.000000 1.111368 2.441912 0.000000 1.103457 2.428094 0.000000 1.116347 2.425628 0.000000 1.131943 2.384463 0.000000 1.143941 2.398318 0.000000 1.130254 2.400936 0.000000 0.830831 1.537876 0.000000 0.725786 1.352502 0.000000 0.944937 1.401824 0.000000 0.889691 1.307292 0.000000 0.756223 1.276975 0.000000 0.853205 1.201716 0.000000 0.741466 1.127866 0.000000 0.847967 1.197312 0.000000 0.739014 1.282274 0.000000 0.805702 1.199998 0.000000 0.715680 1.140970 0.000000 0.828238 1.088516 0.000000 0.717984 1.040595 0.000000 0.827830 1.087758 0.000000 0.710617 1.142570 0.000000 0.526610 0.708255 0.000000 0.669223 0.984918 0.000000 0.400808 0.967342 0.000000 0.827322 1.088942 0.000000 0.707333 1.037409 0.000000 0.774908 0.949215 0.000000 0.643256 1.005904 0.000000 0.671199 1.007604 0.000000 0.656932 1.026272 0.000000 0.611970 0.897243 0.000000 0.515830 0.711926 0.000000 0.701515 0.757128 0.000000 0.492264 0.313564 0.000000 0.603762 0.472952 0.000000 0.427881 0.446366 0.000000 0.598799 0.717156 0.000000 0.378302 0.663194 0.000000 0.570895 0.488545 0.000000 0.352393 0.455485 0.000000 0.570375 0.489003 0.000000 0.377784 0.663651 0.000000 0.196242 0.659943 0.000000 0.049636 0.449890 0.000000 0.264978 0.420240 0.000000 -0.309021 -1.337415 0.000000 -0.191884 -1.354263 0.000000 -0.242746 -1.259370 0.000000 -0.254281 -1.267041 0.000000 -0.325981 -1.275309 0.000000 -0.291245 -1.340014 0.000000 -0.881646 -0.396274 0.000000 -0.834773 -0.314302 0.000000 -0.924421 -0.320615 0.000000 -0.346698 -1.198524 0.000000 -0.347810 -1.198654 0.000000 -0.346869 -1.199766 0.000000 -0.379615 -0.958083 0.000000 -0.795912 -0.983836 0.000000 -0.526243 -1.305829 0.000000 -0.858037 -0.331698 0.000000 -0.893281 -0.393072 0.000000 -0.831368 -0.392296 0.000000 -0.935719 1.158208 0.000000 -0.953093 1.138799 0.000000 -0.926974 1.136071 0.000000 -0.848494 0.780082 0.000000 -0.905171 0.785148 0.000000 -0.871919 0.718752 0.000000 -0.920619 0.791275 0.000000 -0.929362 0.791444 0.000000 -0.922998 0.790692 0.000000 -0.977793 1.394985 0.000000 -0.887958 1.502584 0.000000 -1.037913 1.540518 0.000000 -0.968414 1.151828 0.000000 -0.962220 1.158749 0.000000 -0.969596 1.160635 0.000000 -0.886843 1.482605 0.000000 -0.964924 1.389100 0.000000 -0.873030 1.390685 0.000000 -0.977799 1.824299 0.000000 -0.928918 1.907474 0.000000 -1.021939 1.899501 0.000000 -0.994773 1.744754 0.000000 -0.829746 1.760395 0.000000 -0.925022 1.872044 0.000000 -0.913072 1.448703 0.000000 -0.975488 1.447655 0.000000 -0.913466 1.374772 0.000000 -0.924400 1.901794 0.000000 -0.972902 1.820867 0.000000 -0.892554 1.813643 0.000000 -0.893901 2.106763 0.000000 -0.955950 2.096719 0.000000 -0.924680 2.038673 0.000000 -0.927802 1.994226 0.000000 -0.965916 1.997716 0.000000 -0.949649 1.967125 0.000000 -0.709941 2.639586 0.000000 -0.804442 2.542089 0.000000 -0.705799 2.535323 0.000000 -0.961076 2.094496 0.000000 -0.917451 2.101933 0.000000 -0.954285 2.149659 0.000000 -0.661289 2.361609 0.000000 -0.674935 2.362482 0.000000 -0.665701 2.350563 0.000000 -0.972403 3.016036 0.000000 -1.124363 2.822443 0.000000 -0.862170 2.764521 0.000000 -0.731903 2.467390 0.000000 -0.614665 2.588504 0.000000 -0.772698 2.623444 0.000000 -1.233288 2.666722 0.000000 -1.032944 2.918402 0.000000 -1.319807 2.960919 0.000000 -3.099206 5.848471 0.000000 -3.154743 5.680628 0.000000 -2.981870 5.682727 0.000000 -1.871898 3.926631 0.000000 -1.238733 3.828298 0.000000 -1.532806 4.439567 0.000000 -2.746344 4.801099 0.000000 -2.737646 4.801151 0.000000 -2.741766 4.809472 0.000000 -3.865617 4.907478 0.000000 -4.233145 5.374257 0.000000 -4.241625 4.806120 0.000000 -3.692299 4.482585 0.000000 -3.353689 5.434155 0.000000 -4.093255 5.239504 0.000000 4.150058 6.397890 0.000000 2.864208 4.873009 0.000000 4.298296 4.603309 0.000000 0.957449 4.056670 0.000000 1.280639 4.349131 0.000000 1.030100 4.393773 0.000000 2.538938 4.632542 0.000000 2.676433 4.607523 0.000000 2.567505 4.834160 0.000000 2.712954 4.448167 0.000000 2.623542 4.468266 0.000000 2.678549 4.353296 0.000000 0.937214 3.994893 0.000000 0.978582 4.044590 0.000000 0.926048 4.065437 0.000000 1.227882 4.283876 0.000000 0.970572 4.050998 0.000000 1.257546 3.939031 0.000000 0.840279 3.355516 0.000000 1.187987 3.763415 0.000000 0.767439 3.750833 0.000000 0.852484 2.530894 0.000000 0.823934 2.529807 0.000000 0.845632 2.505854 0.000000 0.875964 2.638831 0.000000 0.879288 2.639815 0.000000 0.876392 2.643012 0.000000 0.988404 1.869515 0.000000 1.074702 1.894875 0.000000 1.019133 1.954300 0.000000 0.882679 1.956647 0.000000 0.956835 1.985756 0.000000 0.913212 2.032279 0.000000 0.960820 1.404839 0.000000 0.994902 1.506783 0.000000 0.907403 1.468862 0.000000 0.990922 1.881111 0.000000 0.637254 1.740614 0.000000 1.022765 1.508433 0.000000 0.767463 1.717774 0.000000 0.964479 1.803416 0.000000 0.744257 1.937277 0.000000 0.927168 1.509236 0.000000 0.861907 1.313522 0.000000 1.008864 1.353597 0.000000 0.830073 1.072682 0.000000 0.894606 1.142209 0.000000 0.815869 1.142941 0.000000 0.925139 1.299579 0.000000 0.853495 1.280208 0.000000 0.922915 1.202922 0.000000 0.826612 1.204078 0.000000 0.922260 1.202620 0.000000 0.852936 1.279322 0.000000 0.892528 1.141157 0.000000 0.829511 1.072992 0.000000 0.889183 1.072983 0.000000 0.721595 0.767481 0.000000 0.797440 0.872996 0.000000 0.664575 0.856872 0.000000 0.883023 1.071240 0.000000 0.828707 1.071388 0.000000 0.878233 1.011481 0.000000 0.690836 0.989527 0.000000 0.856030 1.009516 0.000000 0.747428 1.140688 0.000000 0.713133 0.756131 0.000000 0.718183 0.763147 0.000000 0.710572 0.766100 0.000000 0.460464 0.418867 0.000000 0.585989 0.494385 0.000000 0.475028 0.536709 0.000000 0.483565 0.738752 0.000000 0.302368 0.629476 0.000000 0.461845 0.558756 0.000000 0.273491 0.422319 0.000000 0.431396 0.561861 0.000000 0.204846 0.661547 0.000000 0.379025 0.620859 0.000000 0.221160 0.481348 0.000000 0.394225 0.438673 0.000000 -0.336556 -1.226031 0.000000 -0.313755 -1.212349 0.000000 -0.333543 -1.204189 0.000000 -0.377784 -1.322117 0.000000 -0.297194 -1.342525 0.000000 -0.331195 -1.238642 0.000000 -0.249931 -1.275600 0.000000 -0.336536 -1.240281 0.000000 -0.304007 -1.339150 0.000000 -0.604816 -0.835136 0.000000 -0.588975 -0.825638 0.000000 -0.602685 -0.820577 0.000000 -0.775224 -0.462432 0.000000 -0.715508 -0.366618 0.000000 -0.835607 -0.322869 0.000000 -0.715487 -0.366632 0.000000 -0.775299 -0.462504 0.000000 -0.673009 -0.446912 0.000000 -0.855658 0.729446 0.000000 -0.980699 0.710111 0.000000 -0.860173 0.586142 0.000000 -0.897367 0.685022 0.000000 -0.761816 0.725064 0.000000 -0.846760 0.811866 0.000000 -0.857748 1.162683 0.000000 -1.022744 1.117141 0.000000 -0.901015 1.030776 0.000000 -0.995513 1.078252 0.000000 -0.942898 1.117231 0.000000 -1.001730 1.163395 0.000000 -0.951519 1.335481 0.000000 -0.899230 1.397304 0.000000 -0.951166 1.388489 0.000000 -0.932835 1.326922 0.000000 -0.842133 1.342376 0.000000 -0.944491 1.405120 0.000000 -0.974882 1.163928 0.000000 -1.013062 1.136106 0.000000 -0.965303 1.106774 0.000000 -0.828206 1.750632 0.000000 -0.811790 1.766179 0.000000 -0.835982 1.772197 0.000000 -0.895500 1.377299 0.000000 -0.952226 1.310218 0.000000 -0.863091 1.288176 0.000000 -0.827473 1.774647 0.000000 -0.844445 1.758572 0.000000 -0.826941 1.753351 0.000000 -0.937202 2.154138 0.000000 -1.009768 2.099117 0.000000 -0.947718 2.076534 0.000000 -0.942722 1.981063 0.000000 -0.951492 1.984247 0.000000 -0.948653 1.973728 0.000000 -0.990408 1.854205 0.000000 -0.853439 1.812840 0.000000 -0.896684 1.974780 0.000000 -0.944630 2.562749 0.000000 -1.012545 2.495811 0.000000 -0.918778 2.464413 0.000000 -1.006499 2.096262 0.000000 -0.941385 2.145634 0.000000 -1.025030 2.173572 0.000000 -0.882981 2.600650 0.000000 -0.945143 2.539618 0.000000 -0.863347 2.513656 0.000000 -0.848580 3.110366 0.000000 -1.142701 2.851312 0.000000 -0.733224 2.718626 0.000000 -1.143561 2.852898 0.000000 -0.988086 2.990083 0.000000 -1.136132 3.027485 0.000000 -2.202973 4.447769 0.000000 -1.952680 4.878572 0.000000 -2.457819 4.889244 0.000000 -1.120992 3.277589 0.000000 -1.499296 3.293608 0.000000 -1.352367 2.919585 0.000000 -1.271657 3.094567 0.000000 -0.985684 3.022159 0.000000 -1.115845 3.354839 0.000000 -1.939718 4.972504 0.000000 -2.221098 4.488246 0.000000 -1.731072 4.401614 0.000000 -2.464157 4.308087 0.000000 -2.081660 4.821526 0.000000 -2.465775 4.890006 0.000000 -5.807066 4.645731 0.000000 -5.565348 4.382791 0.000000 -5.506419 4.700422 0.000000 -4.247062 4.999906 0.000000 -4.192612 5.071201 0.000000 -4.264345 5.058771 0.000000 6