<?xml version='1.0'?>
<VTKFile type='UnstructuredGrid' version='0.1' byte_order='LittleEndian'><UnstructuredGrid>
<Piece NumberOfPoints='3000' NumberOfCells='0'>
<PointData Vectors='principal_stress_direction_1 principal_stress_direction_2 principal_stress_direction_3'>
<DataArray type='Float32' Name='principal_stress_direction_1' NumberOfComponents='3' format='ascii'>
-0.979194 0.202925 0.000000 0.384096 -0.923293 0.000000 0.985659 -0.168752 0.000000 -0.498000 0.867177 0.000000 0.168596 -0.985685 0.000000 0.488910 0.872334 0.000000 0.409566 -0.912280 0.000000 -0.340300 -0.940317 0.000000 0.187765 -0.982214 0.000000 -0.998432 0.055982 0.000000 -0.571122 0.820865 0.000000 0.983614 0.180288 0.000000 0.512799 0.858508 0.000000 0.932544 0.361057 0.000000 -0.998031 0.062717 0.000000 0.999750 0.022380 0.000000 -0.776155 0.630542 0.000000 -0.562401 0.826865 0.000000 -0.987159 -0.159741 0.000000 0.842136 -0.539266 0.000000 -0.910112 -0.414362 0.000000 0.992936 -0.118650 0.000000 -0.979412 0.201872 0.000000 -0.387346 0.921934 0.000000 0.970131 -0.242582 0.000000 0.987879 -0.155228 0.000000 0.772900 -0.634527 0.000000 0.347690 -0.937609 0.000000 -0.815628 -0.578577 0.000000 0.146152 -0.989262 0.000000 -0.334799 -0.942290 0.000000 -0.356109 -0.934444 0.000000 -0.584374 0.811485 0.000000 -0.177331 -0.984151 0.000000 0.556964 0.830536 0.000000 -0.925604 -0.378494 0.000000 0.709653 -0.704551 0.000000 -0.706283 0.707929 0.000000 -0.665115 0.746741 0.000000 0.948769 0.315971 0.000000 0.285832 0.958280 0.000000 -0.737691 0.675139 0.000000 -0.986631 0.162973 0.000000 0.726261 0.687419 0.000000 0.573556 0.819166 0.000000 -0.812747 0.582616 0.000000 0.227111 0.973869 0.000000 0.975669 0.219249 0.000000 -0.886541 -0.462650 0.000000 0.884932 0.465720 0.000000 0.991339 -0.131324 0.000000 0.996713 -0.081012 0.000000 0.881028 -0.473063 0.000000 0.747364 -0.664415 0.000000 0.991669 -0.128809 0.000000 -0.373597 0.927591 0.000000 -0.998110 -0.061448 0.000000 0.850868 -0.525380 0.000000 -0.207732 0.978186 0.000000 -0.473041 0.881040 0.000000 0.150758 -0.988571 0.000000 0.153520 -0.988145 0.000000 -0.153521 -0.988145 0.000000 -0.492525 -0.870298 0.000000 0.203226 -0.979132 0.000000 0.099129 -0.995075 0.000000 -0.803040 -0.595925 0.000000 -0.812887 0.582421 0.000000 -0.323238 -0.946318 0.000000 0.900302 0.435266 0.000000 -0.474841 0.880071 0.000000 0.949995 0.312266 0.000000 -0.784126 -0.620601 0.000000 -0.921196 0.389098 0.000000 -0.644458 -0.764639 0.000000 0.866887 0.498504 0.000000 0.694282 -0.719703 0.000000 -0.967620 0.252412 0.000000 -0.909404 -0.415914 0.000000 -0.319333 0.947642 0.000000 0.812681 0.582710 0.000000 -0.788950 0.614458 0.000000 0.952831 0.303503 0.000000 -0.163270 0.986581 0.000000 0.372373 0.928083 0.000000 0.366747 -0.930321 0.000000 -0.849702 0.527264 0.000000 -0.958205 -0.286083 0.000000 0.442702 0.896669 0.000000 -0.451739 0.892150 0.000000 -0.881365 -0.472437 0.000000 -0.924327 -0.381602 0.000000 0.998819 -0.048580 0.000000 0.705276 -0.708933 0.000000 -0.386206 -0.922413 0.000000 -0.332001 -0.943279 0.000000 0.858306 -0.513138 0.000000 0.967496 0.252888 0.000000 -0.610904 -0.791705 0.000000 0.635716 -0.771923 0.000000 0.111850 -0.993725 0.000000 -0.193564 -0.981088 0.000000 -0.999958 -0.009116 0.000000 0.144275 -0.989538 0.000000 -0.132080 -0.991239 0.000000 -0.026749 -0.999642 0.000000 0.174864 -0.984593 0.000000 -0.743339 -0.668915 0.000000 0.587495 -0.809227 0.000000 -0.887221 -0.461345 0.000000 -0.229063 0.973412 0.000000 -0.976754 -0.214362 0.000000 -0.958369 -0.285533 0.000000 -0.923711 -0.383089 0.000000 -0.817455 -0.575992 0.000000 -0.670915 -0.741534 0.000000 -0.860814 -0.508920 0.000000 -0.805536 -0.592547 0.000000 -0.740509 -0.672047 0.000000 0.990964 0.134128 0.000000 -0.108850 0.994058 0.000000 0.970552 0.240892 0.000000 -0.832834 0.553523 0.000000 0.898193 0.439600 0.000000 0.027177 0.999631 0.000000 0.984138 0.177402 0.000000 0.686271 0.727346 0.000000 -0.874675 0.484710 0.000000 -0.552265 0.833669 0.000000 -0.697997 0.716101 0.000000 0.982120 0.188254 0.000000 -0.999714 0.023909 0.000000 -0.716617 0.697467 0.000000 -0.617342 0.786695 0.000000 -0.993398 0.114719 0.000000 0.771102 0.636711 0.000000 0.998316 0.058016 0.000000 0.056111 0.998425 0.000000 0.849703 -0.527262 0.000000 -0.495205 0.868776 0.000000 0.812148 -0.583451 0.000000 0.832857 -0.553488 0.000000 -0.425326 -0.905040 0.000000 0.985051 -0.172261 0.000000 0.893618 -0.448828 0.000000 0.978272 -0.207325 0.000000 0.748311 0.663348 0.000000 0.156931 -0.987610 0.000000 -0.081348 -0.996686 0.000000 0.762651 -0.646811 0.000000 0.838728 -0.544550 0.000000 -0.000049 -1.000000 0.000000 -0.703702 -0.710495 0.000000 0.345508 -0.938416 0.000000 -0.322684 -0.946507 0.000000 0.278000 -0.960581 0.000000 -0.709167 -0.705040 0.000000 -0.712545 -0.701627 0.000000 0.053306 -0.998578 0.000000 0.855059 0.518531 0.000000 -0.605299 -0.795998 0.000000 0.709011 0.705197 0.000000 -0.940619 -0.339465 0.000000 -0.772306 0.635251 0.000000 -0.716979 -0.697095 0.000000 -0.961579 -0.274528 0.000000 -0.871163 0.490994 0.000000 0.014946 -0.999888 0.000000 -0.890555 -0.454876 0.000000 -0.866401 -0.499349 0.000000 -0.744828 0.667256 0.000000 -0.999730 -0.023234 0.000000 0.640833 0.767681 0.000000 0.707362 0.706852 0.000000 -0.666261 0.745718 0.000000 -0.805042 -0.593217 0.000000 0.840448 0.541892 0.000000 0.805792 0.592198 0.000000 0.256908 0.966436 0.000000 0.931296 0.364263 0.000000 -0.977680 0.210098 0.000000 -0.884225 0.467062 0.000000 -0.750319 0.661076 0.000000 0.950930 0.309407 0.000000 0.930726 0.365716 0.000000 0.993858 0.110666 0.000000 -0.830311 0.557301 0.000000 -0.643572 0.765386 0.000000 0.994911 -0.100757 0.000000 -0.951164 -0.308685 0.000000 0.996864 -0.079131 0.000000 -0.857784 -0.514010 0.000000 0.911570 -0.411146 0.000000 -0.987129 -0.159927 0.000000 0.532845 0.846213 0.000000 0.999707 -0.024225 0.000000 0.747565 -0.664188 0.000000 -0.950078 -0.312012 0.000000 0.206780 -0.978388 0.000000 -0.081020 -0.996712 0.000000 0.872218 -0.489117 0.000000 -0.845643 -0.533750 0.000000 0.030114 -0.999546 0.000000 0.564312 -0.825562 0.000000 0.477026 -0.878889 0.000000 -0.293240 -0.956039 0.000000 0.179421 -0.983772 0.000000 -0.308708 -0.951157 0.000000 -0.285490 -0.958382 0.000000 0.435414 -0.900230 0.000000 0.346996 -0.937867 0.000000 0.712772 -0.701396 0.000000 -0.921071 -0.389394 0.000000 -0.210316 -0.977633 0.000000 -0.743260 -0.669003 0.000000 0.424623 -0.905370 0.000000 -0.173639 -0.984809 0.000000 -0.430339 -0.902667 0.000000 0.845899 -0.533343 0.000000 0.456648 0.889648 0.000000 -0.492200 -0.870482 0.000000 -0.991155 -0.132710 0.000000 -0.860072 0.510173 0.000000 -0.603696 -0.797214 0.000000 -0.274930 -0.961464 0.000000 -0.413274 -0.910607 0.000000 -0.721083 -0.692849 0.000000 -0.911482 -0.411340 0.000000 -0.006191 -0.999981 0.000000 0.846593 -0.532241 0.000000 -0.463327 -0.886188 0.000000 0.991608 -0.129281 0.000000 0.279266 0.960214 0.000000 -0.985450 -0.169965 0.000000 -0.614352 -0.789032 0.000000 0.993288 0.115667 0.000000 -0.915904 0.401396 0.000000 0.820742 0.571299 0.000000 -0.721156 0.692773 0.000000 -0.758978 0.651116 0.000000 0.843583 0.536999 0.000000 0.702327 0.711854 0.000000 -0.876776 0.480900 0.000000 -0.760768 0.649024 0.000000 0.559747 0.828664 0.000000 0.991411 0.130785 0.000000 0.925799 0.378016 0.000000 0.573418 0.819263 0.000000 0.602284 -0.798282 0.000000 -0.989773 0.142654 0.000000 0.675226 -0.737610 0.000000 -0.295370 -0.955383 0.000000 -0.875148 -0.483855 0.000000 0.515958 -0.856614 0.000000 -0.144607 -0.989489 0.000000 0.802116 -0.597169 0.000000 0.680627 -0.732630 0.000000 0.265489 -0.964114 0.000000 0.998759 -0.049808 0.000000 -0.616378 -0.787451 0.000000 0.118449 -0.992960 0.000000 0.399264 -0.916836 0.000000 0.573609 -0.819129 0.000000 0.183422 -0.983034 0.000000 0.450605 -0.892724 0.000000 0.366273 -0.930508 0.000000 0.904198 -0.427114 0.000000 -0.262609 -0.964902 0.000000 0.468570 -0.883426 0.000000 0.493300 0.869859 0.000000 0.134022 -0.990978 0.000000 -0.119702 -0.992810 0.000000 -0.886170 -0.463360 0.000000 -0.060277 -0.998182 0.000000 -0.125559 -0.992086 0.000000 -0.380459 0.924798 0.000000 -0.720637 -0.693313 0.000000 -0.787088 -0.616840 0.000000 -0.251104 -0.967960 0.000000 -0.162456 0.986716 0.000000 -0.575885 -0.817531 0.000000 -0.739366 0.673303 0.000000 0.208577 0.978006 0.000000 0.589734 0.807598 0.000000 -0.683379 -0.730064 0.000000 -0.821445 -0.570288 0.000000 -0.980336 -0.197335 0.000000 -0.999047 0.043642 0.000000 -0.856513 -0.516125 0.000000 0.724771 -0.688990 0.000000 -0.985754 -0.168192 0.000000 -0.956384 -0.292114 0.000000 0.617006 0.786959 0.000000 0.956104 0.293027 0.000000 0.058973 0.998260 0.000000 0.625645 0.780108 0.000000 -0.457606 0.889155 0.000000 -0.765381 0.643577 0.000000 -0.944294 0.329104 0.000000 0.514780 0.857322 0.000000 -0.494420 0.869223 0.000000 -0.459982 0.887928 0.000000 -0.647381 0.762167 0.000000 0.706354 0.707859 0.000000 0.825017 0.565108 0.000000 -0.824429 0.565966 0.000000 -0.853130 0.521698 0.000000 -0.941657 0.336573 0.000000 -0.959216 -0.282673 0.000000 -0.388063 0.921633 0.000000 0.794371 0.607433 0.000000 -0.905508 0.424330 0.000000 -0.730172 -0.683264 0.000000 0.978650 -0.205535 0.000000 0.623432 -0.781877 0.000000 0.607291 -0.794479 0.000000 0.931771 -0.363046 0.000000 0.358882 0.933383 0.000000 0.639734 -0.768596 0.000000 0.843266 -0.537496 0.000000 -0.479854 -0.877348 0.000000 0.926551 -0.376169 0.000000 0.443442 -0.896303 0.000000 0.273916 -0.961754 0.000000 -0.184392 -0.982853 0.000000 0.717920 -0.696126 0.000000 0.037164 -0.999309 0.000000 0.752489 -0.658605 0.000000 0.120285 -0.992739 0.000000 0.278645 -0.960394 0.000000 0.030140 -0.999546 0.000000 0.724178 -0.689613 0.000000 0.070468 -0.997514 0.000000 -0.149121 -0.988819 0.000000 0.374624 -0.927177 0.000000 -0.698513 -0.715597 0.000000 0.973771 -0.227532 0.000000 0.995550 -0.094236 0.000000 -0.590268 -0.807207 0.000000 -0.674798 -0.738002 0.000000 -0.512529 -0.858670 0.000000 -0.821553 -0.570132 0.000000 -0.453748 -0.891130 0.000000 -0.257273 -0.966339 0.000000 -0.697080 0.716993 0.000000 -0.860150 -0.510042 0.000000 -0.694012 -0.719963 0.000000 -0.694667 -0.719332 0.000000 0.751295 -0.659967 0.000000 -0.626706 -0.779256 0.000000 -0.913462 -0.406924 0.000000 -0.623316 -0.781970 0.000000 -0.968415 -0.249346 0.000000 0.861877 0.507118 0.000000 -0.968700 -0.248235 0.000000 0.380178 0.924913 0.000000 0.947678 0.319228 0.000000 0.860070 0.510176 0.000000 -0.753292 0.657686 0.000000 -0.997197 0.074820 0.000000 -0.337713 0.941249 0.000000 0.257948 -0.966159 0.000000 -0.699931 0.714211 0.000000 -0.665063 0.746787 0.000000 -0.679488 0.733687 0.000000 0.602571 0.798066 0.000000 -0.375255 0.926922 0.000000 -0.490286 0.871562 0.000000 0.388171 0.921587 0.000000 0.462608 0.886563 0.000000 -0.215390 0.976528 0.000000 -0.908446 0.418001 0.000000 0.728727 0.684804 0.000000 0.417583 0.908639 0.000000 -0.976988 0.213296 0.000000 0.998843 0.048094 0.000000 0.482583 0.875850 0.000000 -0.820374 0.571828 0.000000 0.665931 0.746014 0.000000 0.757252 0.653123 0.000000 -0.990198 -0.139670 0.000000 -0.539862 -0.841754 0.000000 -0.998361 0.057227 0.000000 -0.450082 -0.892987 0.000000 0.130904 -0.991395 0.000000 -0.029816 0.999555 0.000000 -0.856016 -0.516949 0.000000 0.732893 -0.680344 0.000000 -0.643430 0.765505 0.000000 0.406781 -0.913526 0.000000 -0.244952 -0.969535 0.000000 0.457734 -0.889089 0.000000 0.030624 -0.999531 0.000000 -0.244155 -0.969736 0.000000 -0.764789 -0.644281 0.000000 0.094360 -0.995538 0.000000 0.443311 -0.896368 0.000000 0.474511 -0.880250 0.000000 0.144851 -0.989453 0.000000 -0.136011 -0.990707 0.000000 0.179325 -0.983790 0.000000 -0.174292 -0.984694 0.000000 -0.212566 -0.977147 0.000000 0.970414 -0.241446 0.000000 -0.915383 0.402585 0.000000 -0.818073 -0.575115 0.000000 -0.937646 -0.347591 0.000000 -0.965977 -0.258629 0.000000 -0.254351 0.967112 0.000000 -0.242837 -0.970067 0.000000 0.930662 0.365881 0.000000 0.125124 -0.992141 0.000000 -0.863564 -0.504239 0.000000 -0.971356 -0.237630 0.000000 -0.357017 -0.934098 0.000000 0.454340 0.890828 0.000000 -0.421892 -0.906646 0.000000 0.281466 0.959571 0.000000 -0.840888 -0.541209 0.000000 -0.089353 -0.996000 0.000000 0.972574 0.232592 0.000000 -0.941230 -0.337765 0.000000 -0.913503 0.406833 0.000000 0.313787 0.949493 0.000000 -0.833229 0.552929 0.000000 -0.784844 0.619694 0.000000 0.895778 -0.444501 0.000000 -0.763727 0.645539 0.000000 0.955032 0.296503 0.000000 0.517563 0.855645 0.000000 0.133070 -0.991107 0.000000 -0.912654 0.408732 0.000000 -0.749395 0.662123 0.000000 0.412561 -0.910930 0.000000 -0.987631 -0.156797 0.000000 0.823624 0.567136 0.000000 -0.526320 0.850287 0.000000 -0.785908 0.618343 0.000000 0.224213 0.974540 0.000000 -0.706001 0.708211 0.000000 0.539531 0.841966 0.000000 0.201536 0.979481 0.000000 0.999507 0.031408 0.000000 0.703218 0.710974 0.000000 0.287755 0.957704 0.000000 -0.954190 0.299200 0.000000 -0.458254 0.888821 0.000000 -0.824923 0.565245 0.000000 0.569131 0.822247 0.000000 0.680863 0.732411 0.000000 -0.847413 0.530935 0.000000 -0.194058 0.980990 0.000000 0.891580 0.452863 0.000000 -0.930721 -0.365729 0.000000 -0.657041 -0.753855 0.000000 -0.925839 0.377917 0.000000 -0.955400 0.295315 0.000000 -0.938027 -0.346562 0.000000 -0.558177 -0.829722 0.000000 -0.397208 -0.917729 0.000000 0.299070 -0.954231 0.000000 0.690681 -0.723160 0.000000 0.357469 -0.933925 0.000000 0.282957 -0.959133 0.000000 0.004397 -0.999990 0.000000 0.194829 -0.980837 0.000000 0.559642 -0.828734 0.000000 0.575939 -0.817493 0.000000 0.353076 -0.935595 0.000000 0.155159 -0.987890 0.000000 0.561641 -0.827381 0.000000 0.360227 -0.932865 0.000000 -0.003411 -0.999994 0.000000 0.241223 -0.970470 0.000000 -0.999670 -0.025679 0.000000 -0.991594 -0.129388 0.000000 -0.099690 -0.995018 0.000000 0.104786 -0.994495 0.000000 -0.964796 -0.262998 0.000000 -0.797185 -0.603735 0.000000 -0.350326 -0.936628 0.000000 0.089562 -0.995981 0.000000 -0.984694 -0.174291 0.000000 -0.969362 -0.245637 0.000000 0.968248 -0.249991 0.000000 -0.732560 -0.680702 0.000000 -0.990687 -0.136156 0.000000 0.986638 -0.162930 0.000000 -0.998042 -0.062551 0.000000 0.880011 0.474954 0.000000 -0.204499 -0.978867 0.000000 0.394142 -0.919050 0.000000 -0.922227 -0.386648 0.000000 0.862876 0.505416 0.000000 -0.823999 0.566592 0.000000 0.404608 0.914490 0.000000 0.992390 0.123133 0.000000 -0.710743 0.703452 0.000000 0.459085 0.888392 0.000000 -0.998852 0.047895 0.000000 -0.383737 0.923442 0.000000 -0.527498 0.849556 0.000000 0.476689 0.879072 0.000000 0.995535 0.094390 0.000000 -0.669659 0.742668 0.000000 0.291784 0.956484 0.000000 0.669864 0.742484 0.000000 -0.971751 0.236009 0.000000 0.877190 0.480143 0.000000 -0.938556 0.345126 0.000000 -0.729061 0.684448 0.000000 0.069567 -0.997577 0.000000 -0.148857 0.988859 0.000000 -0.435847 0.900021 0.000000 -0.874092 0.485760 0.000000 0.917369 0.398037 0.000000 -0.112694 0.993630 0.000000 -0.530193 0.847877 0.000000 -0.527578 0.849507 0.000000 0.754249 0.656589 0.000000 0.884412 0.466707 0.000000 -0.750736 0.660602 0.000000 0.743322 0.668934 0.000000 -0.737549 0.675294 0.000000 0.747382 0.664395 0.000000 -0.583220 0.812314 0.000000 0.552890 -0.833255 0.000000 0.905793 0.423720 0.000000 -0.488448 0.872593 0.000000 0.962100 -0.272697 0.000000 -0.837312 -0.546726 0.000000 0.216432 -0.976298 0.000000 -0.522801 -0.852455 0.000000 0.685122 -0.728428 0.000000 0.238630 -0.971111 0.000000 0.310242 -0.950658 0.000000 0.306790 -0.951777 0.000000 0.298161 -0.954516 0.000000 0.066446 -0.997790 0.000000 0.146834 -0.989161 0.000000 0.269059 -0.963124 0.000000 -0.149175 -0.988811 0.000000 0.826564 -0.562843 0.000000 0.521712 -0.853122 0.000000 0.045154 -0.998980 0.000000 0.318443 -0.947942 0.000000 0.190608 -0.981666 0.000000 0.015318 0.999883 0.000000 -0.253099 -0.967440 0.000000 0.582531 -0.812809 0.000000 -0.312455 -0.949933 0.000000 -0.989276 -0.146058 0.000000 0.075015 -0.997182 0.000000 -0.953998 -0.299814 0.000000 -0.903881 -0.427784 0.000000 0.985437 -0.170041 0.000000 -0.876087 -0.482153 0.000000 -0.788937 -0.614474 0.000000 -0.935578 -0.353121 0.000000 -0.751361 -0.659891 0.000000 -0.822677 -0.568509 0.000000 -0.789641 -0.613570 0.000000 -0.770835 0.637035 0.000000 -0.920713 -0.390240 0.000000 -0.731596 -0.681738 0.000000 -0.659354 0.751833 0.000000 0.554321 -0.832303 0.000000 0.690644 0.723195 0.000000 0.670459 0.741946 0.000000 -0.860872 -0.508822 0.000000 -0.998466 0.055369 0.000000 0.938457 0.345395 0.000000 -0.077570 0.996987 0.000000 -0.134641 0.990894 0.000000 -0.072359 -0.997379 0.000000 -0.399497 0.916734 0.000000 -0.576107 -0.817374 0.000000 0.940780 0.339019 0.000000 0.282921 0.959143 0.000000 0.340004 0.940424 0.000000 0.832252 0.554397 0.000000 0.970394 0.241527 0.000000 0.705061 0.709146 0.000000 -0.836067 0.548627 0.000000 0.994706 0.102766 0.000000 -0.680132 0.733090 0.000000 -0.942983 0.332842 0.000000 -0.776225 0.630455 0.000000 -0.084074 0.996460 0.000000 0.987803 0.155710 0.000000 0.547979 0.836492 0.000000 -0.967810 0.251682 0.000000 -0.783456 0.621448 0.000000 0.609137 -0.793065 0.000000 0.629696 0.776842 0.000000 -0.987098 -0.160116 0.000000 -0.853708 0.520752 0.000000 -0.654494 0.756067 0.000000 0.734528 0.678578 0.000000 -0.704579 -0.709626 0.000000 0.995954 -0.089866 0.000000 -0.915756 0.401736 0.000000 0.637203 -0.770696 0.000000 0.793925 0.608016 0.000000 -0.789128 -0.614229 0.000000 -0.929203 0.369569 0.000000 -0.705668 -0.708542 0.000000 -0.979221 -0.202798 0.000000 0.452235 -0.891899 0.000000 0.979309 -0.202369 0.000000 0.495048 -0.868866 0.000000 0.527937 -0.849283 0.000000 -0.012231 -0.999925 0.000000 -0.853731 -0.520715 0.000000 0.250568 -0.968099 0.000000 0.768510 -0.639838 0.000000 -0.198372 -0.980127 0.000000 0.655079 -0.755560 0.000000 -0.747819 0.663903 0.000000 0.565078 -0.825038 0.000000 -0.619726 -0.784818 0.000000 -0.016897 -0.999857 0.000000 -0.037210 0.999307 0.000000 0.747986 0.663715 0.000000 0.131265 0.991347 0.000000 0.120882 -0.992667 0.000000 -0.734501 -0.678608 0.000000 -0.891918 -0.452197 0.000000 -0.620354 0.784322 0.000000 0.964567 -0.263839 0.000000 -0.772467 -0.635055 0.000000 -0.802671 -0.596421 0.000000 -0.990849 -0.134976 0.000000 -0.974633 -0.223808 0.000000 -0.582536 -0.812805 0.000000 -0.825217 -0.564815 0.000000 -0.738603 -0.674140 0.000000 -0.989694 -0.143197 0.000000 0.443700 -0.896175 0.000000 -0.102482 -0.994735 0.000000 -0.994297 -0.106650 0.000000 -0.668917 0.743337 0.000000 0.392118 0.919915 0.000000 0.498676 0.866788 0.000000 -0.073031 0.997330 0.000000 -0.135929 -0.990719 0.000000 -0.450893 0.892578 0.000000 -0.391438 -0.920205 0.000000 -0.962002 -0.273043 0.000000 -0.417505 -0.908675 0.000000 -0.394739 0.918793 0.000000 0.363749 0.931497 0.000000 0.968409 0.249369 0.000000 0.997589 0.069396 0.000000 -0.814055 0.580787 0.000000 -0.994733 0.102497 0.000000 0.137712 0.990472 0.000000 -0.219508 0.975611 0.000000 0.780546 0.625098 0.000000 -0.770064 0.637967 0.000000 0.199244 0.979950 0.000000 -0.035106 0.999384 0.000000 0.814364 0.580354 0.000000 -0.767993 0.640459 0.000000 0.622898 0.782303 0.000000 -0.776684 0.629890 0.000000 0.412714 0.910860 0.000000 -0.999684 0.025151 0.000000 -0.987892 -0.155146 0.000000 0.627688 -0.778465 0.000000 0.950878 -0.309566 0.000000 0.995442 -0.095370 0.000000 -0.151920 0.988393 0.000000 0.941569 0.336821 0.000000 0.971372 -0.237564 0.000000 -0.803546 0.595243 0.000000 -0.876158 0.482024 0.000000 -0.527185 0.849750 0.000000 0.613724 0.789521 0.000000 0.393429 -0.919355 0.000000 -0.563770 0.825932 0.000000 -0.617162 -0.786836 0.000000 -0.969018 -0.246991 0.000000 0.614177 -0.789168 0.000000 0.998851 -0.047919 0.000000 0.685128 -0.728423 0.000000 -0.996151 -0.087651 0.000000 0.193454 -0.981109 0.000000 0.196775 -0.980449 0.000000 0.084909 -0.996389 0.000000 0.370829 -0.928701 0.000000 0.740302 -0.672274 0.000000 -0.806935 -0.590640 0.000000 0.286943 -0.957948 0.000000 0.093576 -0.995612 0.000000 -0.433985 0.900920 0.000000 0.864382 0.502837 0.000000 -0.359403 -0.933182 0.000000 0.845880 -0.533374 0.000000 -0.981408 -0.191936 0.000000 0.499852 -0.866111 0.000000 -0.790786 -0.612093 0.000000 0.618916 0.785457 0.000000 -0.611369 -0.791345 0.000000 0.866987 -0.498331 0.000000 -0.833830 -0.552022 0.000000 -0.910173 -0.414229 0.000000 -0.966153 -0.257968 0.000000 -0.437908 -0.899020 0.000000 -0.999976 -0.007000 0.000000 -0.106479 -0.994315 0.000000 -0.968745 -0.248059 0.000000 0.975830 -0.218531 0.000000 -0.978729 -0.205158 0.000000 -0.778662 -0.627443 0.000000 0.924450 -0.381303 0.000000 -0.624143 -0.781310 0.000000 -0.943956 -0.330070 0.000000 -0.042382 0.999101 0.000000 0.341369 -0.939929 0.000000 0.999118 0.041986 0.000000 -0.426305 0.904579 0.000000 -0.776984 0.629520 0.000000 -0.999054 0.043489 0.000000 -0.099468 0.995041 0.000000 0.794463 0.607313 0.000000 -0.523007 -0.852328 0.000000 -0.624686 0.780876 0.000000 -0.662555 0.749014 0.000000 0.675360 0.737488 0.000000 0.830627 0.556829 0.000000 -0.889202 0.457514 0.000000 0.326134 0.945324 0.000000 0.421393 -0.906878 0.000000 -0.717534 0.696524 0.000000 -0.529528 0.848292 0.000000 0.832756 0.553641 0.000000 0.442839 0.896601 0.000000 0.987880 0.155220 0.000000 -0.898254 0.439476 0.000000 -0.437230 0.899350 0.000000 0.820455 0.571711 0.000000 0.166405 0.986057 0.000000 -0.670488 0.741920 0.000000 -0.866690 0.498847 0.000000 0.603291 0.797521 0.000000 0.561179 0.827694 0.000000 0.969219 -0.246200 0.000000 -0.568298 0.822823 0.000000 -0.680873 -0.732402 0.000000 -0.239194 0.970972 0.000000 0.846737 0.532012 0.000000 -0.025778 0.999668 0.000000 -0.973911 0.226932 0.000000 0.657970 0.753044 0.000000 -0.796245 -0.604974 0.000000 -0.498662 0.866796 0.000000 0.274169 0.961681 0.000000 0.940465 0.339890 0.000000 0.954682 0.297628 0.000000 -0.302028 0.953299 0.000000 -0.992409 -0.122982 0.000000 0.837077 0.547086 0.000000 0.410990 0.911640 0.000000 -0.835202 -0.549944 0.000000 0.780543 -0.625102 0.000000 0.949063 -0.315087 0.000000 0.452073 -0.891981 0.000000 -0.774217 -0.632920 0.000000 0.309380 -0.950939 0.000000 0.031819 0.999494 0.000000 0.225705 -0.974196 0.000000 -0.644597 -0.764523 0.000000 -0.038151 0.999272 0.000000 -0.635107 -0.772424 0.000000 0.634072 -0.773274 0.000000 0.587281 -0.809383 0.000000 -0.362105 -0.932137 0.000000 0.298726 -0.954339 0.000000 -0.411488 -0.911415 0.000000 0.194240 -0.980954 0.000000 -0.809239 -0.587480 0.000000 -0.964504 -0.264068 0.000000 -0.639296 -0.768961 0.000000 0.582959 -0.812501 0.000000 -0.595445 -0.803396 0.000000 -0.953996 -0.299819 0.000000 -0.577955 -0.816068 0.000000 -0.844863 0.534983 0.000000 0.936724 -0.350070 0.000000 -0.910049 -0.414502 0.000000 -0.734771 -0.678316 0.000000 -0.291997 -0.956419 0.000000 0.876283 -0.481797 0.000000 0.993954 -0.109797 0.000000 -0.845021 -0.534733 0.000000 -0.821195 -0.570647 0.000000 -0.990122 0.140211 0.000000 -0.928652 -0.370953 0.000000 -0.835420 0.549612 0.000000 0.928815 -0.370543 0.000000 0.918947 0.394380 0.000000 -0.136572 0.990630 0.000000 0.977734 0.209849 0.000000 -0.669625 0.742700 0.000000 0.758583 0.651577 0.000000 0.172537 0.985003 0.000000 -0.979309 0.202372 0.000000 -0.502663 0.864483 0.000000 0.629175 -0.777264 0.000000 0.128315 0.991734 0.000000 0.788475 0.615067 0.000000 -0.486686 0.873577 0.000000 0.412269 0.911062 0.000000 -0.999916 0.012966 0.000000 -0.106913 0.994268 0.000000 -0.995487 0.094896 0.000000 -0.469343 0.883016 0.000000 -0.820712 0.571342 0.000000 0.737470 0.675380 0.000000 0.578411 0.815745 0.000000 -0.998400 0.056548 0.000000 0.967581 0.252560 0.000000 0.702967 0.711222 0.000000 -0.779957 0.625833 0.000000 0.997795 0.066372 0.000000 0.610350 0.792132 0.000000 -0.771437 0.636305 0.000000 -0.670987 -0.741469 0.000000 -0.512904 -0.858446 0.000000 0.971019 -0.239001 0.000000 0.451509 -0.892267 0.000000 0.084330 0.996438 0.000000 0.668880 -0.743370 0.000000 -0.342085 0.939669 0.000000 0.907812 0.419378 0.000000 0.988231 0.152968 0.000000 0.761500 -0.648165 0.000000 -0.998858 -0.047772 0.000000 -0.991732 -0.128330 0.000000 0.499657 -0.866223 0.000000 -0.274711 0.961527 0.000000 0.051377 0.998679 0.000000 0.818119 0.575050 0.000000 -0.687046 0.726614 0.000000 0.971867 -0.235532 0.000000 -0.459386 -0.888237 0.000000 -0.343286 0.939231 0.000000 0.890178 0.455614 0.000000 0.606809 -0.794847 0.000000 -0.994586 -0.103914 0.000000 -0.683162 0.730267 0.000000 0.111122 0.993807 0.000000 0.120593 0.992702 0.000000 -0.797174 -0.603750 0.000000 -0.121466 -0.992596 0.000000 0.877367 -0.479820 0.000000 0.341179 -0.939998 0.000000 -0.371535 -0.928419 0.000000 -0.807059 0.590471 0.000000 0.324894 -0.945750 0.000000 0.602432 -0.798170 0.000000 -0.935022 0.354591 0.000000 0.696554 0.717505 0.000000 -0.624387 -0.781115 0.000000 -0.599124 -0.800656 0.000000 -0.178368 -0.983964 0.000000 -0.443598 -0.896226 0.000000 -0.364595 -0.931166 0.000000 -0.833860 -0.551976 0.000000 -0.078208 -0.996937 0.000000 -0.923206 -0.384306 0.000000 0.696055 -0.717988 0.000000 -0.355486 0.934682 0.000000 0.863171 -0.504911 0.000000 0.442272 -0.896881 0.000000 -0.964604 0.263704 0.000000 -0.988157 0.153446 0.000000 0.692008 0.721890 0.000000 -0.983872 -0.178872 0.000000 -0.559725 0.828678 0.000000 0.994923 0.100639 0.000000 0.470493 0.882404 0.000000 -0.859009 0.511961 0.000000 0.489457 0.872028 0.000000 -0.800055 0.599927 0.000000 0.552535 0.833490 0.000000 -0.619048 0.785353 0.000000 0.014371 0.999897 0.000000 0.260337 0.965518 0.000000 0.082849 0.996562 0.000000 -0.177145 0.984185 0.000000 -0.610940 0.791677 0.000000 0.294743 0.955577 0.000000 0.172444 0.985019 0.000000 0.749258 0.662279 0.000000 0.080671 0.996741 0.000000 -0.532983 0.846126 0.000000 -0.980308 0.197475 0.000000 -0.605781 0.795631 0.000000 0.823843 0.566819 0.000000 0.533307 0.845922 0.000000 -0.999718 0.023742 0.000000 -0.452572 0.891728 0.000000 -0.800502 0.599330 0.000000 0.562916 -0.826514 0.000000 -0.086211 0.996277 0.000000 -0.863192 0.504875 0.000000 -0.425451 0.904982 0.000000 -0.675621 0.737249 0.000000 0.557493 0.830182 0.000000 0.659068 0.752084 0.000000 0.888116 -0.459620 0.000000 0.815988 -0.578069 0.000000 0.610217 -0.792234 0.000000 -0.972711 0.232021 0.000000 0.255774 0.966737 0.000000 -0.950489 0.310758 0.000000 -0.573743 0.819036 0.000000 0.407944 0.913007 0.000000 -0.631325 -0.775519 0.000000 -0.416775 0.909010 0.000000 0.995638 0.093301 0.000000 0.677154 -0.735841 0.000000 0.859749 0.510717 0.000000 0.404808 -0.914402 0.000000 0.799190 0.601079 0.000000 -0.689935 0.723872 0.000000 -0.982046 0.188640 0.000000 -0.856797 0.515654 0.000000 0.850556 0.525884 0.000000 0.302359 0.953194 0.000000 -0.856978 0.515353 0.000000 0.772671 -0.634807 0.000000 0.878186 0.478320 0.000000 0.614122 0.789211 0.000000 0.729383 -0.684105 0.000000 0.100158 0.994972 0.000000 -0.959508 0.281681 0.000000 -0.894566 0.446937 0.000000 0.413817 -0.910360 0.000000 0.893419 0.449224 0.000000 0.891764 -0.452501 0.000000 -0.535759 0.844371 0.000000 0.786074 0.618133 0.000000 -0.216902 -0.976193 0.000000 -0.384756 0.923018 0.000000 -0.425081 0.905155 0.000000 -0.111907 -0.993719 0.000000 -0.997849 0.065554 0.000000 -0.591393 -0.806383 0.000000 -0.769958 -0.638094 0.000000 -0.955819 -0.293955 0.000000 -0.901212 -0.433380 0.000000 0.992955 -0.118489 0.000000 -0.886796 0.462161 0.000000 0.994137 -0.108125 0.000000 -0.427339 -0.904092 0.000000 0.993215 -0.116289 0.000000 0.858079 -0.513518 0.000000 -0.980513 -0.196452 0.000000 -0.838983 -0.544157 0.000000 -0.333092 0.942894 0.000000 0.592610 0.805490 0.000000 -0.424949 0.905217 0.000000 0.816181 0.577796 0.000000 0.065734 0.997837 0.000000 0.211008 0.977484 0.000000 -0.289095 0.957300 0.000000 0.908569 0.417735 0.000000 -0.343331 0.939214 0.000000 -0.596637 0.802511 0.000000 0.232677 0.972554 0.000000 0.544328 0.838873 0.000000 -0.256267 0.966606 0.000000 -0.972548 0.232704 0.000000 0.399760 -0.916620 0.000000 0.378985 0.925403 0.000000 0.478997 0.877817 0.000000 -0.608794 0.793328 0.000000 0.991163 0.132648 0.000000 -0.730927 0.682456 0.000000 0.988186 0.153257 0.000000 -0.600388 0.799709 0.000000 0.878934 0.476943 0.000000 0.520014 0.854158 0.000000 0.027427 -0.999624 0.000000 -0.338290 0.941042 0.000000 0.984292 0.176549 0.000000 -0.769337 0.638843 0.000000 -0.639688 0.768634 0.000000 0.806951 0.590618 0.000000 0.915945 0.401304 0.000000 0.468125 -0.883662 0.000000 -0.999962 0.008678 0.000000 0.549390 -0.835566 0.000000 -0.524440 0.851447 0.000000 0.817250 0.576283 0.000000 0.657025 0.753869 0.000000 0.495176 0.868793 0.000000 0.271407 0.962465 0.000000 -0.307831 0.951441 0.000000 -0.968972 0.247170 0.000000 -0.969503 -0.245080 0.000000 0.714493 0.699642 0.000000 -0.933568 0.358400 0.000000 -0.249706 0.968322 0.000000 -0.032703 0.999465 0.000000 -0.034661 0.999399 0.000000 0.561584 0.827420 0.000000 -0.999996 0.002798 0.000000 -0.884057 0.467379 0.000000 0.964415 0.264394 0.000000 0.659481 -0.751721 0.000000 -0.851655 -0.524104 0.000000 0.797849 0.602857 0.000000 -0.546612 0.837386 0.000000 0.280566 0.959835 0.000000 0.992928 0.118717 0.000000 0.548474 0.836167 0.000000 0.999865 0.016442 0.000000 -0.780350 0.625343 0.000000 0.388645 -0.921387 0.000000 0.567075 -0.823666 0.000000 0.617686 0.786425 0.000000 0.698656 -0.715458 0.000000 0.989991 -0.141131 0.000000 -0.945601 -0.325328 0.000000 -0.827710 0.561157 0.000000 -0.743801 -0.668401 0.000000 0.958026 -0.286683 0.000000 -0.990194 -0.139698 0.000000 -0.699326 -0.714803 0.000000 -0.992351 -0.123450 0.000000 -0.860420 -0.509585 0.000000 0.953883 -0.300180 0.000000 0.994090 0.108561 0.000000 -0.569232 -0.822177 0.000000 -0.253982 -0.967209 0.000000 0.608901 0.793246 0.000000 0.597962 0.801525 0.000000 0.710056 -0.704145 0.000000 0.275405 -0.961328 0.000000 -0.143381 -0.989668 0.000000 0.715495 0.698618 0.000000 -0.355712 -0.934596 0.000000 -0.503720 0.863867 0.000000 0.698782 0.715334 0.000000 0.817265 0.576261 0.000000 -0.983908 0.178676 0.000000 0.969877 0.243595 0.000000 -0.660260 0.751037 0.000000 0.560263 0.828315 0.000000 -0.974348 0.225048 0.000000 0.675678 0.737197 0.000000 -0.311985 0.950087 0.000000 0.908842 -0.417140 0.000000 0