<?xml version='1.0'?>
<VTKFile type='PolyData' version='0.1' byte_order='LittleEndian'><PolyData>
<Piece NumberOfPoints='9000' NumberOfVerts='0' NumberOfLines='0' NumberOfStrips='0' NumberOfPolys='3000'>
<Points>
<DataArray type='Float32' NumberOfComponents='3' format='ascii'>
10.696654 48.842416 0.000000 7.669583 49.408274 0.000000 8.842642 47.309810 0.000000 4.613418 49.786709 0.000000 6.498098 47.040483 0.000000 7.669583 49.408274 0.000000 8.842642 47.309810 0.000000 7.669583 49.408274 0.000000 6.498098 47.040483 0.000000 6.498098 47.040483 0.000000 4.613418 49.786709 0.000000 4.540043 47.210690 0.000000 1.641669 49.975000 0.000000 2.524219 47.095699 0.000000 4.613418 49.786709 0.000000 4.540043 47.210690 0.000000 4.613418 49.786709 0.000000 2.524219 47.095699 0.000000 2.524219 47.095699 0.000000 1.641669 49.975000 0.000000 -0.330785 47.701162 0.000000 -1.641669 49.975000 0.000000 -0.330785 47.701162 0.000000 1.641669 49.975000 0.000000 -0.330785 47.701162 0.000000 -1.641669 49.975000 0.000000 -2.904507 47.890986 0.000000 -4.613418 49.786709 0.000000 -2.904507 47.890986 0.000000 -1.641669 49.975000 0.000000 -2.904507 47.890986 0.000000 -4.613418 49.786709 0.000000 -4.502324 47.819061 0.000000 -7.669583 49.408274 0.000000 -6.064740 47.692592 0.000000 -4.613418 49.786709 0.000000 -4.502324 47.819061 0.000000 -4.613418 49.786709 0.000000 -6.064740 47.692592 0.000000 -6.064740 47.692592 0.000000 -7.669583 49.408274 0.000000 -8.414639 47.158553 0.000000 -10.696654 48.842416 0.000000 -8.414639 47.158553 0.000000 -7.669583 49.408274 0.000000 19.489294 46.045276 0.000000 16.617740 47.157722 0.000000 16.236904 45.503799 0.000000 16.617740 47.157722 0.000000 13.683150 48.091282 0.000000 16.236904 45.503799 0.000000 16.236904 45.503799 0.000000 13.683150 48.091282 0.000000 13.906330 45.025544 0.000000 8.842642 47.309810 0.000000 10.970743 45.524098 0.000000 10.696654 48.842416 0.000000 10.696654 48.842416 0.000000 10.970743 45.524098 0.000000 13.683150 48.091282 0.000000 13.906330 45.025544 0.000000 13.683150 48.091282 0.000000 10.970743 45.524098 0.000000 10.970743 45.524098 0.000000 8.842642 47.309810 0.000000 8.375179 45.731467 0.000000 6.498098 47.040483 0.000000 8.375179 45.731467 0.000000 8.842642 47.309810 0.000000 8.375179 45.731467 0.000000 6.498098 47.040483 0.000000 6.918864 44.914593 0.000000 2.524219 47.095699 0.000000 4.522153 44.917870 0.000000 4.540043 47.210690 0.000000 6.918864 44.914593 0.000000 6.498098 47.040483 0.000000 4.522153 44.917870 0.000000 4.540043 47.210690 0.000000 4.522153 44.917870 0.000000 6.498098 47.040483 0.000000 4.522153 44.917870 0.000000 2.524219 47.095699 0.000000 2.372226 44.963574 0.000000 2.372226 44.963574 0.000000 2.524219 47.095699 0.000000 0.305933 45.110394 0.000000 -0.330785 47.701162 0.000000 0.305933 45.110394 0.000000 2.524219 47.095699 0.000000 0.305933 45.110394 0.000000 -0.330785 47.701162 0.000000 -1.913248 46.156978 0.000000 -2.904507 47.890986 0.000000 -1.913248 46.156978 0.000000 -0.330785 47.701162 0.000000 -6.064740 47.692592 0.000000 -4.428090 45.904312 0.000000 -4.502324 47.819061 0.000000 -1.913248 46.156978 0.000000 -2.904507 47.890986 0.000000 -4.428090 45.904312 0.000000 -4.502324 47.819061 0.000000 -4.428090 45.904312 0.000000 -2.904507 47.890986 0.000000 -8.414639 47.158553 0.000000 -6.762688 46.075936 0.000000 -6.064740 47.692592 0.000000 -4.428090 45.904312 0.000000 -6.064740 47.692592 0.000000 -6.762688 46.075936 0.000000 -6.762688 46.075936 0.000000 -8.414639 47.158553 0.000000 -8.313898 45.320280 0.000000 -13.683150 48.091282 0.000000 -10.982696 45.608726 0.000000 -10.696654 48.842416 0.000000 -8.313898 45.320280 0.000000 -8.414639 47.158553 0.000000 -10.982696 45.608726 0.000000 -10.696654 48.842416 0.000000 -10.982696 45.608726 0.000000 -8.414639 47.158553 0.000000 -10.982696 45.608726 0.000000 -13.683150 48.091282 0.000000 -13.441378 45.675072 0.000000 -19.489294 46.045276 0.000000 -15.740887 45.213916 0.000000 -16.617740 47.157722 0.000000 -16.617740 47.157722 0.000000 -15.740887 45.213916 0.000000 -13.683150 48.091282 0.000000 -13.441378 45.675072 0.000000 -13.683150 48.091282 0.000000 -15.740887 45.213916 0.000000 22.286918 44.758165 0.000000 19.489294 46.045276 0.000000 20.345641 43.510240 0.000000 20.345641 43.510240 0.000000 19.489294 46.045276 0.000000 18.114284 43.562817 0.000000 16.236904 45.503799 0.000000 18.114284 43.562817 0.000000 19.489294 46.045276 0.000000 18.114284 43.562817 0.000000 16.236904 45.503799 0.000000 15.607392 43.137712 0.000000 13.906330 45.025544 0.000000 15.607392 43.137712 0.000000 16.236904 45.503799 0.000000 10.970743 45.524098 0.000000 13.029386 42.867729 0.000000 13.906330 45.025544 0.000000 15.607392 43.137712 0.000000 13.906330 45.025544 0.000000 13.029386 42.867729 0.000000 13.029386 42.867729 0.000000 10.970743 45.524098 0.000000 10.583680 42.453619 0.000000 6.918864 44.914593 0.000000 8.642442 43.865863 0.000000 8.375179 45.731467 0.000000 10.583680 42.453619 0.000000 10.970743 45.524098 0.000000 8.642442 43.865863 0.000000 8.375179 45.731467 0.000000 8.642442 43.865863 0.000000 10.970743 45.524098 0.000000 4.522153 44.917870 0.000000 6.551337 43.013051 0.000000 6.918864 44.914593 0.000000 8.642442 43.865863 0.000000 6.918864 44.914593 0.000000 6.551337 43.013051 0.000000 6.551337 43.013051 0.000000 4.522153 44.917870 0.000000 4.631597 42.370991 0.000000 0.305933 45.110394 0.000000 2.133222 42.727117 0.000000 2.372226 44.963574 0.000000 4.631597 42.370991 0.000000 4.522153 44.917870 0.000000 2.133222 42.727117 0.000000 2.372226 44.963574 0.000000 2.133222 42.727117 0.000000 4.522153 44.917870 0.000000 2.133222 42.727117 0.000000 0.305933 45.110394 0.000000 -0.439246 42.946423 0.000000 -4.428090 45.904312 0.000000 -2.211275 44.175348 0.000000 -1.913248 46.156978 0.000000 -0.439246 42.946423 0.000000 0.305933 45.110394 0.000000 -2.211275 44.175348 0.000000 -1.913248 46.156978 0.000000 -2.211275 44.175348 0.000000 0.305933 45.110394 0.000000 -2.211275 44.175348 0.000000 -4.428090 45.904312 0.000000 -4.476913 43.116326 0.000000 -8.313898 45.320280 0.000000 -6.594233 44.301264 0.000000 -6.762688 46.075936 0.000000 -4.476913 43.116326 0.000000 -4.428090 45.904312 0.000000 -6.594233 44.301264 0.000000 -6.762688 46.075936 0.000000 -6.594233 44.301264 0.000000 -4.428090 45.904312 0.000000 -10.982696 45.608726 0.000000 -8.818422 43.452771 0.000000 -8.313898 45.320280 0.000000 -6.594233 44.301264 0.000000 -8.313898 45.320280 0.000000 -8.818422 43.452771 0.000000 -8.818422 43.452771 0.000000 -10.982696 45.608726 0.000000 -11.137279 42.539437 0.000000 -15.740887 45.213916 0.000000 -13.360030 43.784383 0.000000 -13.441378 45.675072 0.000000 -11.137279 42.539437 0.000000 -10.982696 45.608726 0.000000 -13.360030 43.784383 0.000000 -13.441378 45.675072 0.000000 -13.360030 43.784383 0.000000 -10.982696 45.608726 0.000000 -13.360030 43.784383 0.000000 -15.740887 45.213916 0.000000 -15.564945 42.421176 0.000000 -19.489294 46.045276 0.000000 -18.031942 43.318653 0.000000 -15.740887 45.213916 0.000000 -15.564945 42.421176 0.000000 -15.740887 45.213916 0.000000 -18.031942 43.318653 0.000000 -18.031942 43.318653 0.000000 -19.489294 46.045276 0.000000 -20.287341 43.503657 0.000000 -22.286918 44.758165 0.000000 -20.287341 43.503657 0.000000 -19.489294 46.045276 0.000000 27.618249 41.680119 0.000000 25.000000 43.301270 0.000000 25.408483 40.702666 0.000000 25.408483 40.702666 0.000000 25.000000 43.301270 0.000000 22.290147 41.328507 0.000000 20.345641 43.510240 0.000000 22.290147 41.328507 0.000000 22.286918 44.758165 0.000000 25.000000 43.301270 0.000000 22.286918 44.758165 0.000000 22.290147 41.328507 0.000000 18.114284 43.562817 0.000000 19.544480 41.854006 0.000000 20.345641 43.510240 0.000000 22.290147 41.328507 0.000000 20.345641 43.510240 0.000000 19.544480 41.854006 0.000000 15.607392 43.137712 0.000000 17.457766 41.322614 0.000000 18.114284 43.562817 0.000000 19.544480 41.854006 0.000000 18.114284 43.562817 0.000000 17.457766 41.322614 0.000000 17.457766 41.322614 0.000000 15.607392 43.137712 0.000000 14.894176 40.539529 0.000000 13.029386 42.867729 0.000000 14.894176 40.539529 0.000000 15.607392 43.137712 0.000000 14.894176 40.539529 0.000000 13.029386 42.867729 0.000000 12.207428 40.520754 0.000000 10.583680 42.453619 0.000000 12.207428 40.520754 0.000000 13.029386 42.867729 0.000000 12.207428 40.520754 0.000000 10.583680 42.453619 0.000000 10.192559 40.381294 0.000000 6.551337 43.013051 0.000000 8.450544 41.554813 0.000000 8.642442 43.865863 0.000000 10.192559 40.381294 0.000000 10.583680 42.453619 0.000000 8.450544 41.554813 0.000000 8.642442 43.865863 0.000000 8.450544 41.554813 0.000000 10.583680 42.453619 0.000000 8.450544 41.554813 0.000000 6.551337 43.013051 0.000000 6.135289 40.448104 0.000000 4.631597 42.370991 0.000000 6.135289 40.448104 0.000000 6.551337 43.013051 0.000000 6.135289 40.448104 0.000000 4.631597 42.370991 0.000000 3.808761 40.742287 0.000000 2.133222 42.727117 0.000000 3.808761 40.742287 0.000000 4.631597 42.370991 0.000000 3.808761 40.742287 0.000000 2.133222 42.727117 0.000000 1.965084 39.856598 0.000000 1.965084 39.856598 0.000000 2.133222 42.727117 0.000000 -0.110265 40.899450 0.000000 -0.439246 42.946423 0.000000 -0.110265 40.899450 0.000000 2.133222 42.727117 0.000000 -4.476913 43.116326 0.000000 -2.319765 41.813513 0.000000 -2.211275 44.175348 0.000000 -0.110265 40.899450 0.000000 -0.439246 42.946423 0.000000 -2.319765 41.813513 0.000000 -2.211275 44.175348 0.000000 -2.319765 41.813513 0.000000 -0.439246 42.946423 0.000000 -2.319765 41.813513 0.000000 -4.476913 43.116326 0.000000 -4.546906 40.560874 0.000000 -8.818422 43.452771 0.000000 -6.768376 41.934064 0.000000 -6.594233 44.301264 0.000000 -6.594233 44.301264 0.000000 -6.768376 41.934064 0.000000 -4.476913 43.116326 0.000000 -4.546906 40.560874 0.000000 -4.476913 43.116326 0.000000 -6.768376 41.934064 0.000000 -11.137279 42.539437 0.000000 -9.118740 41.006383 0.000000 -8.818422 43.452771 0.000000 -6.768376 41.934064 0.000000 -
[...]
<PointData Vectors='Velocity Force Displacement'>
<DataArray type='Float32' Name='Velocity' NumberOfComponents='3' format='ascii'>
-0.000000 -0.000000 0.000000 0.000000 -0.000000 0.000000 0.000000 0.000000 0.000000 0.000000 -0.000000 0.000000 -0.000000 -0.000000 0.000000 -0.000000 0.000000 0.000000 0.000000 0.000000 0.000000 0.000000 -0.000000 0.000000 -0.000000 -0.000000 0.000000 -0.000000 0.000000 0.000000 0.000000 -0.000000 0.000000 -0.000000 -0.000000 0.000000 0.000000 0.000000 0.000000 0.000000 0.000000 0.000000 -0.000000 -0.000000 0.000000 0.000000 -0.000000 0.000000 -0.000000 -0.000000 0.000000 0.000000 0.000000 0.000000 0.000000 -0.000000 0.000000 -0.000000 -0.000000 0.000000 0.000000 0.000000 0.000000 -0.000000 0.000000 0.000000 0.000000 0.000000 0.000000 -0.000000 -0.000000 0.000000 0.000000 -0.000000 0.000000 -0.000000 0.000000 0.000000 0.000000 0.000000 0.000000 0.000000 0.000000 0.000000 -0.000000 -0.000000 0.000000 -0.000000 -0.000000 0.000000 0.000000 -0.000000 0.000000 -0.000000 0.000000 0.000000 0.000000 -0.000000 0.000000 -0.000000 0.000000 0.000000 0.000000 -0.000000 0.000000 0.000000 0.000000 0.000000 0.000000 0.000000 0.000000 0.000000 0.000000 0.000000 -0.000000 -0.000000 0.000000 0.000000 -0.000000 0.000000 -0.000000 0.000000 0.000000 -0.000000 -0.000000 0.000000 -0.000000 0.000000 0.000000 0.000000 -0.000000 0.000000 -0.000000 -0.000000 0.000000 0.000000 0.000000 0.000000 0.000000 0.000000 0.000000 0.000000 0.000000 0.000000 0.000000 0.000000 0.000000 0.000000 -0.000000 0.000000 -0.000000 0.000000 0.000000 0.000000 -0.000000 0.000000 -0.000000 0.000000 0.000000 -0.000000 -0.000000 0.000000 0.000000 -0.000000 0.000000 -0.000000 0.000000 0.000000 0.000000 0.000000 0.000000 0.000000 -0.000000 0.000000 -0.000000 -0.000000 0.000000 0.000000 0.000000 0.000000 0.000000 -0.000000 0.000000 -0.000000 -0.000000 0.000000 0.000000 0.000000 0.000000 0.000000 0.000000 0.000000 0.000000 0.000000 0.000000 0.000000 0.000000 0.000000 0.000000 -0.000000 0.000000 -0.000000 0.000000 0.000000 0.000000 0.000000 0.000000 0.000000 -0.000000 0.000000 -0.000000 0.000000 0.000000 0.000000 0.000000 0.000000 0.000000 -0.000000 0.000000 -0.000000 0.000000 0.000000 -0.000000 0.000000 0.000000 -0.000000 0.000000 0.000000 0.000000 0.000000 0.000000 -0.000000 -0.000000 0.000000 0.000000 0.000000 0.000000 0.000000 0.000000 0.000000 -0.000000 -0.000000 0.000000 -0.000000 0.000000 0.000000 0.000000 -0.000000 0.000000 0.000000 -0.000000 0.000000 0.000000 -0.000000 0.000000 0.000000 0.000000 0.000000 -0.000000 0.000000 0.000000 0.000000 -0.000000 0.000000 -0.000000 -0.000000 0.000000 0.000000 0.000000 0.000000 0.000000 -0.000000 0.000000 0.000000 0.000000 0.000000 -0.000000 -0.000000 0.000000 -0.000000 0.000000 0.000000 -0.000000 -0.000000 0.000000 0.000000 0.000000 0.000000 0.000000 0.000000 0.000000 0.000000 0.000000 0.000000 0.000000 0.000000 0.000000 0.000000 0.000000 0.000000 0.000000 0.000000 0.000000 0.000000 0.000000 0.000000 0.000000 0.000000 0.000000 -0.000000 -0.000000 0.000000 0.000000 0.000000 0.000000 -0.000000 -0.000000 0.000000 0.000000 0.000000 0.000000 0.000000 0.000000 0.000000 0.000000 -0.000000 0.000000 -0.000000 0.000000 0.000000 0.000000 -0.000000 0.000000 -0.000000 0.000000 0.000000 0.000000 -0.000000 0.000000 -0.000000 -0.000000 0.000000 0.000000 -0.000000 0.000000 -0.000000 0.000000 0.000000 0.000000 0.000000 0.000000 0.000000 -0.000000 0.000000 -0.000000 -0.000000 0.000000 0.000000 0.000000 0.000000 0.000000 0.000000 0.000000 0.000000 0.000000 0.000000 0.000000 0.000000 0.000000 0.000000 0.000000 0.000000 0.000000 0.000000 0.000000 0.000000 0.000000 0.000000 0.000000 0.000000 0.000000 0.000000 -0.000000 0.000000 -0.000000 -0.000000 0.000000 0.000000 -0.000000 0.000000 -0.000000 -0.000000 0.000000 0.000000 0.000000 0.000000 -0.000000 -0.000000 0.000000 0.000000 0.000000 0.000000 -0.000000 -0.000000 0.000000 0.000000 -0.000000 0.000000 -0.000000 0.000000 0.000000 0.000000 0.000000 0.000000 -0.000000 0.000000 0.000000 0.000000 0.000000 0.000000 -0.000000 -0.000000 0.000000 0.000000 0.000000 0.000000 0.000000 0.000000 0.000000 0.000000 0.000000 0.000000 0.000000 0.000000 0.000000 0.000000 0.000000 0.000000 0.000000 0.000000 0.000000 -0.000000 0.000000 0.000000 0.000000 -0.000000 0.000000 -0.000000 0.000000 0.000000 -0.000000 0.000000 0.000000 0.000000 -0.000000 0.000000 0.000000 0.000000 0.000000 0.000000 -0.000000 0.000000 -0.000000 0.000000 0.000000 0.000000 -0.000000 0.000000 0.000000 -0.000000 0.000000 -0.000000 0.000000 0.000000 -0.000000 0.000000 0.000000 -0.000000 0.000000 0.000000 0.000000 -0.000000 0.000000 -0.000000 -0.000000 0.000000 0.000000 -0.000000 0.000000 -0.000000 -0.000000 0.000000 0.000000 0.000000 0.000000 0.000000 -0.000000 0.000000 0.000000 0.000000 0.000000 -0.000000 -0.000000 0.000000 0.000000 -0.000000 0.000000 -0.000000 0.000000 0.000000 -0.000000 -0.000000 0.000000 0.000000 0.000000 0.000000 0.000000 0.000000 0.000000 0.000000 0.000000 0.000000 0.000000 -0.000000 0.000000 -0.000000 0.000000 0.000000 -0.000000 0.000000 0.000000 -0.000000 -0.000000 0.000000 -0.000000 0.000000 0.000000 0.000000 -0.000000 0.000000 0.000000 -0.000000 0.000000 0.000000 0.000000 0.000000 -0.000000 -0.000000 0.000000 -0.000000 0.000000 0.000000 -0.000000 -0.000000 0.000000 0.000000 0.000000 0.000000 0.000000 -0.000000 0.000000 -0.000000 0.000000 0.000000 0.000000 0.000000 0.000000 -0.000000 0.000000 0.000000 0.000000 -0.000000 0.000000 -0.000000 0.000000 0.000000 0.000000 0.000000 0.000000 0.000000 0.000000 0.000000 0.000000 0.000000 0.000000 0.000000 0.000000 0.000000 -0.000000 -0.000000 0.000000 -0.000000 0.000000 0.000000 0.000000 -0.000000 0.000000 -0.000000 0.000000 0.000000 -0.000000 0.000000 0.000000 0.000000 0.000000 0.000000 0.000000 0.000000 0.000000 0.000000 0.000000 0.000000 0.000000 -0.000000 0.000000 -0.000000 -0.000000 0.000000 0.000000 0.000000 0.000000 0.000000 0.000000 0.000000 0.000000 0.000000 0.000000 0.000000 0.000000 0.000000 -0.000000 0.000000 0.000000 0.000000 -0.000000 0.000000 0.000000 0.000000 0.000000 0.000000 -0.000000 0.000000 -0.000000 0.000000 0.000000 0.000000 0.000000 0.000000 0.000000 -0.000000 0.000000 -0.000000 0.000000 0.000000 0.000000 0.000000 0.000000 -0.000000 0.000000 0.000000 0.000000 -0.000000 0.000000 -0.000000 -0.000000 0.000000 -0.000000 0.000000 0.000000 0.000000 0.000000 0.000000 -0.000000 -0.000000 0.000000 -0.000000 -0.000000 0.000000 -0.000000 -0.000000 0.000000 0.000000 0.000000 0.000000 0.000000 0.000000 0.000000 0.000000 0.000000 0.000000 0.000000 0.000000 0.000000 -0.000000 0.000000 0.000000 -0.000000 -0.000000 0.000000 0.000000 0.000000 0.000000 0.000000 0.000000 0.000000 0.000000 0.000000 0.000000 0.000000 0.000000 0.000000 -0.000000 0.000000 0.000000 0.000000 -0.000000 0.000000 -0.000000 -0.000000 0.000000 0.000000 0.000000 0.000000 0.000000 0.000000 0.000000 0.000000 0.000000 0.000000 0.000000 -0.000000 0.000000 -0.000000 0.000000 0.000000 0.000000 0.000000 0.000000 0.000000 0.000000 0.000000 0.000000 0.000000 0.000000 0.000000 0.000000 0.000000 0.000000 0.000000 0.000000 0.000000 0.000000 0.000000 0.000000 0.000000 0.000000 0.000000 0.000000 0.000000 0.000000 0.000000 0.000000 0.000000 0.000000 0.000000 -0.000000 0.000000 0.000000 0.000000 -0.000000 0.000000 -0.000000 -0.000000 0.000000 0.000000 -0.000000 0.000000 -0.000000 0.000000 0.000000 -0.000000 0.000000 0.000000 -0.000000 0.000000 0.000000 0.000000 -0.000000 0.000000 -0.000000 -0.000000 0.000000 0.000000 -0.000000 0.000000 -0.000000 0.000000 0.000000 0.000000 0.000000 0.000000 0.000000 0.000000 0.000000 -0.000000 -0.000000 0.000000 -0.000000 -0.000000 0.000000 -0.000000 0.000000 0.000000 0.000000 -0.000000 0.000000 -0.000000 -0.000000 0.000000 0.000000 -0.000000 0.000000 -0.000000 0.000000 0.000000 -0.000000 0.000000 0.000000 0.000000 0.000000 0.000000 0.000000 0.000000 0.000000 0.000000 0.000000 0.000000 -0.000000 0.000000 0.000000 0.000000 -0.000000 0.000000 0.000000 -0.000000 0.000000 0.000000 0.000000 0.000000 0.000000 0.000000 0.000000 0.000000 0.000000 0.000000 0.000000 -0.000000 0.000000 -0.000000 0.000000 0.000000 -0.000000 0.000000 0.000000 -0.000000 0.000000 0.000000 0.000000 0.000000 0.000000 0.000000 -0.000000 0.000000 -0.000000 0.000000 0.000000 0.000000 -0.000000 0.000000 -0.000000 -0.000000 0.000000 -0.000000 0.000000 0.000000 0.000000 -0.000000 0.000000 -0.000000 0.000000 0.000000 0.000000 -0.000000 0.000000 -0.000000 0.000000 0.000000 0.000000 0.000000 0.000000 -0.000000 0.000000 0.000000 -0.000000 -0.000000 0.000000 0.000000 0.000000 0.000000 0.000000 -0.000000 0.000000 -0.000000 0.000000 0.000000 0.000000 0.000000 0.000000 0.000000 -0.000000 0.000000 0.000000 -0.000000 0.000000 0.000000 -0.000000 0.000000 0.000000 0.000000 0.000000 0.000000 0.000000 0.000000 0.000000 0.000000 0.000000 0.000000 -0.000000 0.000000 -0.000000 0.000000 0.000000 0.000000 0.000000 0.000000 -0.000000 -0.000000 0.000000 -0.000000 0.000000 0.000000 -0.000000 0.000000 0.000000 0.000000 -0.000000 0.000000 -0.000000 -0.000000 0.000000 -0.000000 0.000000 0.000000 0.000000 0.000000 0.000000 0.000000 0.000000 0.000000 0.000000 0.000000 0.000000 -0.000000 0.000000 0.000000 0.000000 -0.000000 0.000000 0.000000 0.000000 0.000000 -0.000000 0.000000 0.000000 -0.000000 0.000000 0.000000 0.000000 -0.000000 0.000000 -0.000000 0.000000 0.000000 0.000000 0.000000 0.000000 0.000000 -0.000000 0.000000 0.000000 0.000000 0.000000 0.000000 0.000000 0.000000 0.000000 0.000000 0.000000 0.000000 0.000000 0.000000 0.000000 0.000000 0.000000 0.000000 0.000000 0.000000 -0.000000 0.000000 0.000000 0.000000 -0.000000 0.000000 -0.000000 -0.000000 0.000000 0.000000 0.000000 0.000000 0.000000 0.000000 0.000000 0.000000 0.000000 0.000000 -0.000000 0.000000 0.000000 0.000000 0.000000 0.000000 -0.000000 -0.000000 0.000000 -0.000000 -0.000000 0.000000 0.000000 0.000000 0.000000 -0.000000 -0.000000 0.000000 -0.000000 0.000000 0.000000 -0.000000 0.000000 0.000000 0.000000 -0.000000 0.000000 0.000000 0.000000 0.000000 0.000000 0.000000 0.000000 0.000000 0.000000 0.000000 -0.000000 0.000000 0.000000 -0.000000 -0.000000 0.000000 0.000000 0.000000 0.000000 -0.000000 0.000000 0.000000 -0.000000 -0.000000 0.000000 0.000000 0.000000 0.000000 -0.000000 0.000000 0.000000 0.000000 0.000000 0.000000 -0.000000 -0.000000 0.000000 0.000000 0.000000 0.000000 0.000000 0.000000 0.000000 0.000000 0.000000 0.000000 -0.000000 0.000000 0.000000 0.000000 0.000000 0.000000 -0.000000 -0.000000 0.000000 0.000000 0.000000 0.000000 0.000000 0.000000 0.000000 0.000000 0.000000 0.000000 0.000000 -0.000000 0.000000 -0.000000 0.000000 0.000000 -0.000000 -0.000000 0.000000 -0.000000 -0.000000 0.000000 0.000000 0.000000 0.000000 0.000000 0.000000 0.000000 0.000000 0.000000 0.000000 0.000000 0.000000 0.000000 0.000000 0.000000 0.000000 0.000000 0.000000 0.000000 0.000000 0.000000 0.000000 0.000000 0.000000 0.000000 0.000000 0.000000 0.000000 0.000000 -0.000000 0.000000 -0.000000 -0.000000 0.000000 -0.000000 0.000000 0.000000 0.000000 0.000000 0.000000 -0.000000 -0.000000 0.000000 0.000000 0.000000 0.000000 0.000000 0.000000 0.000000 0.000000 0.000000 0.000000 0.000000 -0.000000 0.000000 -0.000000 0.000000 0.000000 0.000000 -0.000000 0.000000 -0.000000 0.000000 0.000000 0.000000 -0.000000 0.000000 0.000000 -0.000000 0.000000 0.000000 -0.000000 0.000000 -0.000000 0.000000 0.000000 0.000000 -0.000000 0.000000 0.000000 0.000000 0.000000 0.000000 0.000000 0.000000 0.000000 0.000000 0.000000 -0.000000 0.000000 0.000000 -0.000000 -0.000000 0.000000 0.000000 0.000000 0.000000 0.000000 0.000000 0.000000 0.000000 0.000000 0.000000 0.000000 0.000000 0.000000 0.000000 -0.000000 0.000000 -0.000000 0.000000 0.000000 0.000000 0.000000 0.000000 0.000000 0.000000 0.000000 0.000000 0.000000 0.000000 0.000000 0.000000 0.000000 -0.000000 0.000000 0.000000 -0.000000 -0.000000 0.000000 0.000000 0.000000 0.000000 -0.000000 -0.000000 0.000000 0.000000 0.000000 0.000000 -0.000000 -0.000000 0.000000 -0.000000 0.000000 0.000000 0.000000 -0.000000 0.000000 -0.000000 -0.000000 0.000000 -0.000000 0.000000 0.000000 -0.000000 -0.000000 0.000000 0.000000 0.000000 0.000000 0.000000 -0.000000 0.000000 -0.000000 0.000000 0.000000 0.000000 0.000000 0.000000 0.000000 0.000000 0.000000 0.000000 0.000000 0.000000 0.000000 0.000000 0.000000 0.000000 -0.000000 0.000000 -0.000000 -0.000000 0.000000 0.000000 0.000000 0.000000 0.000000 0.000000 0.000000 0.000000 0.000000 0.000000 0.000000 0.000000 0.000000 -0.000000 0.000000 0.000000 0.000000 -0.000000 0.000000 -0.000000 0.000000 0.000000 0.000000 -0.000000 0.000000 -0.000000 -0.000000 0.000000 0.000000 0.000000 0.000000 0.000000 0.000000 0.000000 0.000000 -0.000000 0.000000 -0.000000 0.000000 0.000000 0.000000 -0.000000 0.000000 -0.000000 0.000000 0.000000 0.000000 0.000000 0.000000 0.000000 0.000000 0.000000 0.000000 0.000000 0.000000 -0.000000 -0.000000 0.000000 0.000000 0.000000 0.000000 -0.000000 0.000000 0.000000 0.000000 0.000000 0.000000 0.000000 -0.000000 0.000000 -0.000000 0.000000 0.000000 0.000000 0.000000 0.000000 -0.000000 0.000000 0.000000 0.000000 0.000000 0.000000 -0.000000 -0.000000 0.000000 0.000000 0.000000 0.000000 -0.000000 -0.000000 0.000000 0.000000 0.000000 0.000000 0.000000 -0.000000 0.000000 -0.000000 0.000000 0.000000 0.000000 0.000000 0.000000 -0.000000 0.000000 0.000000 0.000000 -0.000000 0.000000 -0.000000 0.000000 0.000000 0.000000 -0.000000 0.000000 -0.000000 -0.000000 0.000000 0.000000 0.000000 0.000000 0.000000 -0.000000 0.000000 -0.000000 -0.000000 0.000000 0.000000 0.000000 0.000000 -0.000000 0.000000 0.000000 0.000000 -0.000000 0.000000 0.000000 0.000000 0.000000 0.000000 -0.000000 0.000000 -0.000000 0.000000 0.000000 -0.000000 0.000000 0.000000 0.000000 -0.000000 0.000000 -0.000000 0.000000 0.000000 0.000000 -0.000000 0.000000 0.000000 0.000000 0.000000 0.000000 0.000000 0.000000 0.000000 0.000000 0.000000 0.000000 -0.000000 0.000000 -0.000000 -0.000000 0.000000 0.000000 0.000000 0.000000 0.000000 0.000000 0.000000 -0.000000 -0.000000 0.000000 0.000000 0.000000 0.000000 0.000000 -0.000000 0.000000 -0.000000 0.000000 0.000000 0.000000 0.000000 0.000000 -0.000000 0.000000 0.000000 0.000000 0.000000 0.000000 -0.000000 -0.000000 0.000000 -0.000000 0.000000 0.000000 0.000000 0.000000 0.000000 0.000000 -0.000000 0.000000 0.000000 -0.000000 0.000000 -0.000000 0.000000 0.000000 -0.000000 -0.000000 0.000000 0.000000 -0.000000 0.000000 0.000000 0.000000 0.000000 -0.000000 -0.000000 0.000000 0.000000 -0.000000 0.000000 -0.000000 -0.000000 0.000000 0.000000 0.000000 0.000000 0.000000 0.000000 0.000000 0.000000 0.000000 0.000000 0.000000 0.000000 0.000000 0.000000 -0.000000 0.000000 -0.000000 0.000000 0.000000 0.000000 -0.000000 0.000000 -0.000000 0.000000 0.000000 0.000000 -0.000000 0.000000 -0.000000 -0.000000 0.000000 0.000000 0.000000 0.000000 0.000000 -0.000000 0.000000 -0.000000 -0.000000 0.000000 -0.000000 0.000000 0.000000 -0.000000 -0.000000 0.000000 0.000000 -0.000000 0.000000 0.000000 -0.000000 0.000000 0.000000 -0.000000 0.000000 -0.000000 0.000000 0.000000 0.000000 0.000000 0.000000 0.000000 0.000000 0.000000 0.000000 0.000000 0.000000 0.000000 -0.000000 0.000000 -0.000000 0.000000 0.000000 0.000000 -0.000000 0.000000 0.000000 -0.000000 0.000000 -0.000000 0.000000 0.000000 0.000000 0.000000 0.000000 0.000000 0.000000 0.000000 0.000000 0.000000 0.000000 0.000000 0.000000 0.000000 0.000000 0.000000 0.000000 0.000000 0.000000 0.000000 -0.000000 -0.000000 0.000000 0.000000 -0.000000 0.000000 -0.000000 -0.000000 0.000000 0.000000 0.000000 0.000000 0.000000 -0.000000 0.000000 -0.000000 0.000000 0.000000 0.000000 0.000000 0.000000 0.000000 -0.000000 0.000000 -0.000000 0.000000 0.000000 0.000000 -0.000000 0.000000 -0.000000 0.000000 0.000000 0.000000 -0.000000 0.000000 -0.000000 -0.000000 0.000000 0.000000 -0.000000 0.000000 0.000000 0.000000 0.000000 -0.000000 -0.000000 0.000000 -0.000000 -0.000000 0.000000 -0.000000 0.000000 0.000000 0.000000 -0.000000 0.000000 -0.000000 0.000000 0.000000 -0.000000 0.000000 0.000000 0.000000 -0.000000 0.000000 0.000000 -0.000000 0.000000 -0.000000 0.000000 0.000000 0.000000 -0.000000 0.000000 -0.000000 0.000000 0.000000 -0.000000 0.000000 0.000000 0.000000 -0.000000 0.000000 0.000000 -0.000000 0.000000 -0.000000 0.000000 0.000000 -0.000000 -0.000000 0.000000 0.000000 -0.000000 0.000000 -0.000000 -0.000000 0.000000 0.000000 0.000000 0.000000 0.000000 -0.000000 0.000000 0.000000 -0.000000 0.000000 -0.000000 0.000000 0.000000 0.000000 -0.000000 0.000000 -0.000000 0.000000 0.000000 0.000000 0.000000 0.000000 -0.000000 0.000000 0.000000 0.000000 0.000000 0.000000 -0.000000 -0.000000 0.000000 0.000000 -0.000000 0.000000 0.000000 0.000000 0.000000 -0.000000 -0.000000 0.000000 -0.000000 0.000000 0.000000 0.000000 -0.000000 0.000000 -0.000000 -0.000000 0.000000 0.000000 0.000000 0.000000 0.000000 0.000000 0.000000 0.000000 0.000000 0.000000 0.000000 -0.000000 0.000000 0.000000 0.000000 0.000000 -0.000000 -0.000000 0.000000 -0.000000 -0.000000 0.000000 -0.000000 -0.000000 0.000000 0.000000 0.000000 0.000000 0.000000 0.000000 0.000000 0.000000 0.000000 0.000000 0.000000 0.000000 0.000000 -0.000000 0.000000 0.000000 0.000000 -0.000000 0.000000 -0.000000 -0.000000 0.000000 0.000000 0.000000 0.000000 0.000000 -0.000000 0.000000 -0.000000 -0.000000 0.000000 0.000000 0.000000 0.000000 0.000000 0.000000 0.000000 0.000000 0.000000 0.000000 0.000000 -0.000000 0.000000 -0.000000 0.000000 0.000000 -0.000000 -0.000000 0.000000 0.000000 -0.000000 0.000000 -0.000000 0.000000 0.000000 0.000000 0.000000 0.000000 -0.000000 0.000000 0.000000 0.000000 0.000000 0.000000 0.000000 -0.000000 0.000000 -0.000000 0.000000 0.000000 -0.000000 -0.000000 0.000000 0.000000 -0.000000 0.000000 0.000000 -0.000000 0.000000 -0.000000 0.000000 0.000000 0.000000 0.000000 0.000000 -0.000000 0.000000 0.000000 0.000000 -0.000000 0.000000 0.000000 0.000000 0.000000 0.000000 0.000000 0.000000 0.000000 0.000000 0.000000 0.000000 0.000000 0.000000 0.000000 0.000000 0.000000 0.000000 0.000000 0.000000 0.000000 0.000000 0.000000 0.000000 0.000000 0.000000 0.000000 0.000000 0.000000 0.000000 0.000000 0.000000 0.000000 0.000000 0.000000 0.000000 0.000000 0.000000 0.000000 0.000000 0.000000 0.000000 0.000000 0.000000 0.000000 0.000000 0.000000 0.000000 0.000000 0.000000 -0.000000 0.000000 0.000000 0.000000 -0.000000 0.000000 0.000000 0.000000 0.000000 0.000000 0.000000 0.000000 0.000000 0.000000 0.000000 0.000000 0.000000 0.000000 -0.000000 0.000000 0.000000 0.000000 -0.000000 0.000000 0.000000 0.000000 0.000000 -0.000000 0.000000 0.000000 0.000000 -0.000000 0.000000 0.000000 0.000000 0.000000 0.000000 -0.000000 0.000000 -0.000000 0.000000 0.000000 0.000000 -0.000000 0.000000 -0.000000 0.000000 0.000000 0.000000 -0.000000 0.000000 -0.000000 -0.000000 0.000000 -0.000000 0.000000 0.000000 0.000000 -0.000000 0.000000 -0.000000 -0.000000 0.000000 -0.000000 -0.000000 0.000000 -0.000000 -0.000000 0.000000 0.000000 0.000000 0.000000 0.000000 -0.000000 0.000000 -0.000000 -0.000000 0.000000 -0.000000 0.000000 0.000000 -0.000000 -0.000000 0.000000 -0.000000 0.000000 0.000000 0.000000 0.000000 0.000000 -0.000000 0.000000 0.000000 0.000000 -0.000000 0.000000 -0.000000 -0.000000 0.000000 -0.000000 0.000000 0.000000 0.000000 -0.000000 0.000000 -0.000000 -0.000000 0.000000 -0.000000 0.000000 0.000000 0.000000 -0.000000 0.000000 -0.000000 -0.000000 0.000000 0.000000 0.000000 0.000000 0.000000 -0.000000 0.000000 -0.000000 0.000000 0.000000 -0.000000 -0.000000 0.000000 0.000000 -0.000000 0.000000 0.000000 0.000000 0.000000 0.000000 0.000000 0.000000 0.000000 0.000000 0.000000 0.000000 0.000000 0.000000 -0.000000 0.000000 0.000000 0.000000 0.000000 0.000000 0.000000 -0.000000 0.000000 -0.000000 0.000000 0.000000 0.000000 -0.000000 0.000000 -0.000000 -0.000000 0.000000 0.000000 0.000000 0.000000 0.000000 0.000000 0.000000 0.000000 0.000000 0.000000 -0.000000 -0.000000 0.000000 0.000000 0.000000 0.000000 0.000000 0.000000 0.000000 -0.000000 0.000000 0.000000 0.000000 -0.0