<?xml version='1.0'?>
<VTKFile type='PolyData' version='0.1' byte_order='LittleEndian'><PolyData>
<Piece NumberOfPoints='9000' NumberOfVerts='0' NumberOfLines='0' NumberOfStrips='0' NumberOfPolys='3000'>
<Points>
<DataArray type='Float32' NumberOfComponents='3' format='ascii'>
10.751838 49.104678 0.000000 7.739650 49.745048 0.000000 8.860577 47.618281 0.000000 4.605178 49.835595 0.000000 6.618364 47.182133 0.000000 7.675886 49.602971 0.000000 8.925105 47.459669 0.000000 7.679170 49.515697 0.000000 6.591433 47.108308 0.000000 6.580943 47.109266 0.000000 4.623508 49.804118 0.000000 4.619037 47.227058 0.000000 1.638274 49.915176 0.000000 2.586166 47.056732 0.000000 4.613541 49.794617 0.000000 4.600384 47.218840 0.000000 4.615453 49.795859 0.000000 2.587678 47.058267 0.000000 2.518989 47.036251 0.000000 1.636815 49.915664 0.000000 -0.335936 47.642085 0.000000 -1.648660 49.914970 0.000000 -0.337834 47.641095 0.000000 1.634681 49.914882 0.000000 -0.343822 47.638403 0.000000 -1.649429 49.915276 0.000000 -2.917097 47.834197 0.000000 -4.630240 49.895745 0.000000 -3.031577 47.906167 0.000000 -1.652602 49.915205 0.000000 -3.026427 47.896423 0.000000 -4.651298 49.864482 0.000000 -4.625870 47.893943 0.000000 -7.719361 49.638543 0.000000 -6.201156 47.845749 0.000000 -4.648284 49.865731 0.000000 -4.632752 47.873270 0.000000 -4.656865 49.843896 0.000000 -6.199197 47.815954 0.000000 -6.146247 47.758925 0.000000 -7.705234 49.516372 0.000000 -8.509379 47.287085 0.000000 -10.747346 49.161295 0.000000 -8.456559 47.489385 0.000000 -7.723274 49.742970 0.000000 19.928466 46.714802 0.000000 16.964604 47.550796 0.000000 16.741832 45.868277 0.000000 16.824222 47.526712 0.000000 13.933893 48.589425 0.000000 16.370453 45.891295 0.000000 16.303535 45.634567 0.000000 13.813306 48.283244 0.000000 13.962044 45.212994 0.000000 8.909181 47.502732 0.000000 11.012484 45.687877 0.000000 10.784128 49.009655 0.000000 10.778845 49.093367 0.000000 11.041047 45.774088 0.000000 13.762631 48.331541 0.000000 13.923993 45.163566 0.000000 13.697631 48.229071 0.000000 10.987890 45.659073 0.000000 11.040662 45.609256 0.000000 8.912065 47.394374 0.000000 8.445042 45.815901 0.000000 6.553693 47.103674 0.000000 8.443598 45.813296 0.000000 8.895437 47.396191 0.000000 8.436933 45.817398 0.000000 6.546542 47.107118 0.000000 6.989062 44.985650 0.000000 2.576953 47.057413 0.000000 4.596003 44.899152 0.000000 4.591557 47.192039 0.000000 6.996410 44.948271 0.000000 6.549140 47.068742 0.000000 4.599847 44.921626 0.000000 4.591420 47.217031 0.000000 4.602153 44.924166 0.000000 6.551446 47.071282 0.000000 4.530766 44.934544 0.000000 2.529367 47.109183 0.000000 2.380767 44.976826 0.000000 2.372277 44.909352 0.000000 2.524661 47.041449 0.000000 0.306013 45.056554 0.000000 -0.342277 47.640686 0.000000 0.293068 45.049581 0.000000 2.512406 47.033711 0.000000 0.289235 45.047797 0.000000 -0.342105 47.639880 0.000000 -1.927770 46.098985 0.000000 -2.917656 47.834235 0.000000 -1.930468 46.097907 0.000000 -0.344387 47.638374 0.000000 -6.109759 47.769826 0.000000 -4.502258 45.955299 0.000000 -4.545502 47.870999 0.000000 -1.956590 46.142639 0.000000 -2.943398 47.879184 0.000000 -4.472072 45.896424 0.000000 -4.527380 47.867370 0.000000 -4.501974 45.951389 0.000000 -2.928261 47.898458 0.000000 -8.467564 47.272427 0.000000 -6.834170 46.162012 0.000000 -6.108964 47.766625 0.000000 -4.500489 45.952581 0.000000 -6.109138 47.766086 0.000000 -6.832123 46.160468 0.000000 -6.803912 46.140115 0.000000 -8.442861 47.242315 0.000000 -8.364005 45.402973 0.000000 -13.812210 48.377658 0.000000 -11.097281 45.910942 0.000000 -10.830160 49.146250 0.000000 -8.364063 45.403172 0.000000 -8.449383 47.242225 0.000000 -11.030348 45.713992 0.000000 -10.681706 49.011577 0.000000 -11.108079 45.793382 0.000000 -8.475064 47.230084 0.000000 -11.169294 45.885136 0.000000 -13.861788 48.376322 0.000000 -13.627750 45.959350 0.000000 -19.745255 46.661438 0.000000 -16.083832 45.505715 0.000000 -16.787477 47.518707 0.000000 -16.765437 47.543590 0.000000 -15.896226 45.596355 0.000000 -13.827203 48.465617 0.000000 -13.635339 45.958156 0.000000 -13.868212 48.375239 0.000000 -15.936532 45.505471 0.000000 22.363678 45.019953 0.000000 19.611158 46.400890 0.000000 20.381330 43.838358 0.000000 20.415606 43.642743 0.000000 19.612439 46.195126 0.000000 18.185836 43.741954 0.000000 16.294116 45.703851 0.000000 18.118196 43.712696 0.000000 19.559988 46.156973 0.000000 18.147957 43.681429 0.000000 16.274222 45.625929 0.000000 15.640272 43.261028 0.000000 13.942618 45.155870 0.000000 15.638524 43.263406 0.000000 16.274488 45.627767 0.000000 11.007736 45.653517 0.000000 13.063734 42.995100 0.000000 13.942825 45.152041 0.000000 15.645548 43.255027 0.000000 13.947639 45.145697 0.000000 13.067104 42.989349 0.000000 13.099561 42.948688 0.000000 11.043013 45.606672 0.000000 10.653556 42.536489 0.000000 6.988167 44.985126 0.000000 8.714548 43.941033 0.000000 8.442280 45.805912 0.000000 10.653265 42.534180 0.000000 11.042713 45.604362 0.000000 8.713132 43.947925 0.000000 8.446659 45.814980 0.000000 8.714596 43.949473 0.000000 11.042297 45.608548 0.000000 4.597243 44.916082 0.000000 6.651306 43.038118 0.000000 6.993791 44.944329 0.000000 8.735724 43.927450 0.000000 6.994100 44.945928 0.000000 6.659828 43.038260 0.000000 6.573651 43.056565 0.000000 4.535106 44.951363 0.000000 4.657097 42.405053 0.000000 0.308218 45.055112 0.000000 2.136090 42.672283 0.000000 2.374546 44.908799 0.000000 4.647358 42.389656 0.000000 4.533837 44.936354 0.000000 2.148415 42.741781 0.000000 2.381849 44.976805 0.000000 2.146401 42.739979 0.000000 4.531848 44.934522 0.000000 2.129688 42.674673 0.000000 0.304558 45.059602 0.000000 -0.442580 42.896309 0.000000 -4.470957 45.892436 0.000000 -2.255833 44.161312 0.000000 -1.955872 46.142648 0.000000 -0.459975 42.886232 0.000000 0.290487 45.048376 0.000000 -2.228997 44.119481 0.000000 -1.928840 46.099380 0.000000 -2.231702 44.118484 0.000000 0.287781 45.047382 0.000000 -2.256339 44.161641 0.000000 -4.471608 45.892583 0.000000 -4.522924 43.104646 0.000000 -8.357688 45.405803 0.000000 -6.650627 44.365811 0.000000 -6.797344 46.142413 0.000000 -4.522349 43.154283 0.000000 -4.471402 45.942231 0.000000 -6.638765 44.340834 0.000000 -6.795587 46.134894 0.000000 -6.637897 44.359233 0.000000 -4.462076 45.949104 0.000000 -11.020281 45.693747 0.000000 -8.859908 43.533882 0.000000 -8.352008 45.400476 0.000000 -6.636843 44.355679 0.000000 -8.356570 45.374592 0.000000 -8.860982 43.507053 0.000000 -8.858372 43.532338 0.000000 -11.020347 45.690598 0.000000 -11.178201 42.621476 0.000000 -15.829780 45.413563 0.000000 -13.471764 43.946659 0.000000 -13.523283 45.838396 0.000000 -11.178578 42.633738 0.000000 -11.019748 45.702810 0.000000 -13.399604 43.881759 0.000000 -13.508960 45.806410 0.000000 -13.414676 43.916322 0.000000 -11.049881 45.756890 0.000000 -13.391969 43.898725 0.000000 -15.772653 45.328547 0.000000 -15.597050 42.535787 0.000000 -19.512888 46.178802 0.000000 -18.048026 43.456206 0.000000 -15.762205 45.357778 0.000000 -15.600221 42.536031 0.000000 -15.773821 45.328917 0.000000 -18.066465 43.435576 0.000000 -18.086004 43.452784 0.000000 -19.524431 46.189438 0.000000 -20.340067 43.653409 0.000000 -22.412899 45.034017 0.000000 -20.345855 43.894094 0.000000 -19.692189 46.476617 0.000000 27.933335 42.023257 0.000000 25.311774 43.639045 0.000000 25.725575 41.041283 0.000000 25.655190 41.042747 0.000000 25.293411 43.648264 0.000000 22.548587 41.724454 0.000000 20.412559 43.664626 0.000000 22.348269 41.475086 0.000000 22.358843 44.904728 0.000000 25.123714 43.562028 0.000000 22.438770 45.070151 0.000000 22.376908 41.641049 0.000000 18.145241 43.692940 0.000000 19.575906 41.984521 0.000000 20.376613 43.640975 0.000000 22.344548 41.472308 0.000000 20.383564 43.639241 0.000000 19.594977 41.976983 0.000000 15.646162 43.257312 0.000000 17.496446 41.442122 0.000000 18.153074 43.682293 0.000000 19.583675 41.974466 0.000000 18.153341 43.683162 0.000000 17.497004 41.442905 0.000000 17.501715 41.436670 0.000000 15.651563 43.251994 0.000000 14.938030 40.653897 0.000000 13.073222 42.982499 0.000000 14.938147 40.654415 0.000000 15.651196 43.252648 0.000000 14.964868 40.619722 0.000000 13.100054 42.947904 0.000000 12.278120 40.600920 0.000000 10.653168 42.533186 0.000000 12.277864 40.601117 0.000000 13.098671 42.948495 0.000000 12.292878 40.582673 0.000000 10.666956 42.513708 0.000000 10.278168 40.440944 0.000000 6.621997 43.020139 0.000000 8.531329 41.575184 0.000000 8.707102 43.887516 0.000000 10.277511 40.438488 0.000000 10.666244 42.511262 0.000000 8.534145 41.609999 0.000000 8.725281 43.923094 0.000000 8.537433 41.611711 0.000000 10.668990 42.514254 0.000000 8.479881 41.606848 0.000000 6.574073 43.056448 0.000000 6.169675 40.489637 0.000000 4.656821 42.404911 0.000000 6.169378 40.488989 0.000000 6.573576 43.055831 0.000000 6.167263 40.486550 0.000000 4.653083 42.401190 0.000000 3.839162 40.768014 0.000000 2.146376 42.741773 0.000000 3.825314 40.759835 0.000000 4.645359 42.389942 0.000000 3.823395 40.761878 0.000000 2.143913 42.743372 0.000000 1.981483 39.872525 0.000000 1.962442 39.806358 0.000000 2.132127 42.676786 0.000000 -0.112345 40.850329 0.000000 -0.443132 42.896358 0.000000 -0.116082 40.849076 0.000000 2.129128 42.674625 0.000000 -4.514325 43.106337 0.000000 -2.357231 41.803435 0.000000 -2.248635 44.165256 0.000000 -0.127542 40.845883 0.000000 -0.446050 42.894512 0.000000 -2.332339 41.771233 0.000000 -2.246510 44.128264 0.000000 -2.358441 41.766591 0.000000 -0.476274 42.896758 0.000000 -2.361133 41.805804 0.000000 -4.519313 43.106895 0.000000 -4.587278 40.551391 0.000000 -8.862010 43.505670 0.000000 -6.811306 41.987853 0.000000 -6.638189 44.355128 0.000000 -6.639472 44.337457 0.000000 -6.812579 41.970181 0.000000 -4.521636 43.153443 0.000000 -4.590194 40.596623 0.000000 -4.524059 43.152177 0.000000 -6.813735 41.966458 0.000000 -11.178585 42.615431 0.000000 -9.160892 41.081264 0.000000 -8.859225 43.527486 0.000000 -6.811033 41.986488 0.000000 -
[...]
<PointData Vectors='Velocity Force Displacement'>
<DataArray type='Float32' Name='Velocity' NumberOfComponents='3' format='ascii'>
1.024850 5.025088 0.000000 1.318278 6.405361 0.000000 0.343735 5.891714 0.000000 -0.057271 -0.374629 0.000000 1.653630 0.923406 0.000000 0.092737 1.605282 0.000000 1.652193 2.769698 0.000000 -0.128758 1.698379 0.000000 1.996979 0.682255 0.000000 1.829197 0.308771 0.000000 0.499251 -0.657237 0.000000 1.771059 -0.659452 0.000000 -0.155424 -1.002314 0.000000 0.978454 -0.626931 0.000000 -0.107629 0.177734 0.000000 0.904862 0.123638 0.000000 -0.007351 0.129108 0.000000 0.961595 -0.588842 0.000000 -0.287998 -1.242059 0.000000 -0.155248 -1.200725 0.000000 -0.259851 -1.111098 0.000000 -0.209437 -1.015418 0.000000 -0.211493 -1.015897 0.000000 -0.211233 -1.026707 0.000000 -0.209734 -1.207808 0.000000 -0.134229 -1.162947 0.000000 -0.203616 -1.121046 0.000000 0.110278 1.724695 0.000000 -1.385430 0.517662 0.000000 0.078685 -0.593340 0.000000 -1.053038 -0.390290 0.000000 1.079350 1.543180 0.000000 -1.049489 1.448316 0.000000 -2.216676 3.539124 0.000000 -5.142617 1.057897 0.000000 -1.830156 -1.494396 0.000000 -2.636073 -0.458794 0.000000 -0.159767 -0.436612 0.000000 -2.677293 1.565624 0.000000 -1.759354 1.362268 0.000000 -0.741125 2.261435 0.000000 -1.978953 2.699799 0.000000 -1.019130 6.100566 0.000000 -0.888152 6.280027 0.000000 -1.064698 6.337472 0.000000 8.190402 12.678083 0.000000 6.700506 7.396384 0.000000 9.698820 6.999327 0.000000 3.883103 7.005936 0.000000 4.780693 9.447247 0.000000 2.501752 7.389195 0.000000 1.175788 2.774661 0.000000 2.283722 3.816377 0.000000 0.999436 3.754133 0.000000 2.567672 3.864377 0.000000 2.781968 4.112731 0.000000 2.389736 4.085769 0.000000 2.485463 4.680040 0.000000 1.687663 4.617018 0.000000 2.302356 3.962878 0.000000 0.815700 2.857756 0.000000 0.737768 2.852001 0.000000 0.803103 2.783116 0.000000 1.701801 1.545148 0.000000 1.817248 1.686836 0.000000 1.713190 1.716771 0.000000 1.087759 0.159837 0.000000 1.952694 1.252447 0.000000 0.983557 1.520504 0.000000 1.168154 1.602113 0.000000 0.712413 0.934359 0.000000 1.461969 1.090619 0.000000 0.991777 -0.702444 0.000000 1.546939 -0.186486 0.000000 0.956191 -0.186316 0.000000 1.481948 0.667619 0.000000 0.980213 0.561722 0.000000 1.487161 0.101565 0.000000 0.945966 0.099488 0.000000 1.486426 0.101974 0.000000 0.979732 0.562387 0.000000 0.043842 0.513630 0.000000 -0.038347 0.438019 0.000000 0.040917 0.435792 0.000000 -0.143276 -1.187822 0.000000 -0.150874 -1.187272 0.000000 -0.143603 -1.194739 0.000000 -0.295328 -1.194407 0.000000 -0.272732 -1.188867 0.000000 -0.290036 -1.169515 0.000000 -0.380880 -1.407903 0.000000 -0.244662 -1.374782 0.000000 -0.325629 -1.291484 0.000000 -0.189518 -1.123886 0.000000 -0.267188 -1.168189 0.000000 -0.197733 -1.239083 0.000000 -0.993526 1.697244 0.000000 -1.541006 1.212223 0.000000 -0.962998 1.225273 0.000000 -0.836266 -0.244341 0.000000 -0.812553 -0.232788 0.000000 -0.842639 -0.214188 0.000000 -1.032381 0.405901 0.000000 -2.418846 0.373242 0.000000 -0.961501 -0.647793 0.000000 -1.144061 2.511020 0.000000 -1.525175 1.950405 0.000000 -0.974439 1.701502 0.000000 -1.774331 0.944692 0.000000 -0.990217 1.644615 0.000000 -1.674609 1.951991 0.000000 -0.809268 1.386167 0.000000 -0.420773 1.963857 0.000000 -1.069094 1.936060 0.000000 -2.525322 5.485831 0.000000 -2.287316 5.747786 0.000000 -2.599480 5.773560 0.000000 -1.078442 1.924179 0.000000 -0.718679 1.940871 0.000000 -1.017639 2.445769 0.000000 0.082417 3.281383 0.000000 -2.485087 3.621520 0.000000 -1.338854 1.520892 0.000000 -3.548064 5.301332 0.000000 -3.317233 5.550818 0.000000 -3.541188 5.529131 0.000000 -4.784121 11.617222 0.000000 -6.675247 5.625556 0.000000 -3.381171 6.777082 0.000000 -2.912486 7.425586 0.000000 -3.123547 7.331372 0.000000 -2.812546 7.107110 0.000000 -3.623297 5.558338 0.000000 -3.499345 5.570281 0.000000 -3.646512 5.676348 0.000000 1.440671 4.958538 0.000000 2.327264 6.725753 0.000000 0.682038 6.231264 0.000000 1.281033 2.696221 0.000000 2.217231 2.990822 0.000000 1.317419 3.514088 0.000000 1.273242 3.722331 0.000000 0.424496 2.944794 0.000000 1.466397 2.330221 0.000000 0.954348 2.556271 0.000000 1.024109 2.623802 0.000000 0.939186 2.646773 0.000000 0.918525 2.713766 0.000000 0.762202 2.573680 0.000000 0.957505 2.521148 0.000000 0.864201 2.692364 0.000000 0.935126 2.746934 0.000000 0.877575 2.770322 0.000000 1.100430 2.655248 0.000000 1.033671 2.595057 0.000000 1.108219 2.563900 0.000000 1.776069 1.523528 0.000000 1.878743 1.599523 0.000000 1.772409 1.607127 0.000000 1.471464 1.102487 0.000000 1.690254 1.453381 0.000000 1.304201 1.398570 0.000000 1.765990 1.608401 0.000000 1.952254 1.584956 0.000000 1.851993 1.722486 0.000000 1.639689 1.578288 0.000000 1.421095 1.546298 0.000000 1.615182 1.273799 0.000000 1.534906 -0.330691 0.000000 2.216812 0.415086 0.000000 1.524642 0.539490 0.000000 2.027448 1.353210 0.000000 1.549013 0.535417 0.000000 2.444859 0.378470 0.000000 0.420515 0.867993 0.000000 0.239129 0.672848 0.000000 0.482882 0.684525 0.000000 -0.151280 -1.193046 0.000000 -0.213466 -1.240733 0.000000 -0.155112 -1.246968 0.000000 0.202866 0.551474 0.000000 0.083513 0.548191 0.000000 0.185552 0.435015 0.000000 0.041057 0.436738 0.000000 0.117544 0.429945 0.000000 0.043743 0.511844 0.000000 -0.249179 -1.315589 0.000000 -0.153612 -1.242408 0.000000 -0.240237 -1.212851 0.000000 -0.825816 -0.259930 0.000000 -0.865878 -0.315776 0.000000 -0.812119 -0.326713 0.000000 -0.527373 -1.369256 0.000000 -0.413514 -1.408798 0.000000 -0.462443 -1.276098 0.000000 -0.363172 -1.292030 0.000000 -0.464215 -1.276586 0.000000 -0.416835 -1.405093 0.000000 -0.946413 -0.334423 0.000000 -0.958219 -0.341733 0.000000 -0.938958 -0.345390 0.000000 -0.969529 1.983712 0.000000 -1.296415 1.447151 0.000000 -0.737998 1.493269 0.000000 -0.921509 0.924852 0.000000 -0.953140 0.925485 0.000000 -0.934949 0.900919 0.000000 -0.720331 1.374219 0.000000 -0.960050 1.353036 0.000000 -0.755243 1.036917 0.000000 -0.792456 2.038344 0.000000 -0.950374 1.880409 0.000000 -0.813892 1.843271 0.000000 -0.942472 1.204701 0.000000 -1.028848 1.058916 0.000000 -0.870533 1.016156 0.000000 -0.888499 1.817796 0.000000 -0.825438 1.881024 0.000000 -0.915173 1.885713 0.000000 -1.622822 3.819912 0.000000 -1.915221 3.349884 0.000000 -1.538138 3.360154 0.000000 -0.885449 2.093577 0.000000 -0.827979 2.090748 0.000000 -0.862056 2.134921 0.000000 -1.237285 2.524377 0.000000 -0.964968 2.537961 0.000000 -1.230149 2.878671 0.000000 -0.626536 2.609450 0.000000 -0.616952 2.625408 0.000000 -0.635672 2.624231 0.000000 -0.383564 2.776366 0.000000 -0.297208 2.822829 0.000000 -0.357523 2.895332 0.000000 -0.575534 2.524376 0.000000 -0.726250 2.515008 0.000000 -0.624077 2.391287 0.000000 -0.965019 2.640553 0.000000 -0.511107 2.879137 0.000000 -0.931743 3.014421 0.000000 -2.342727 5.225848 0.000000 -1.123504 7.436619 0.000000 -3.885607 8.135778 0.000000 6.184586 6.694692 0.000000 6.101580 6.560017 0.000000 6.235032 6.581275 0.000000 4.763667 6.563042 0.000000 5.719905 6.695821 0.000000 5.013852 7.703183 0.000000 1.237168 2.995733 0.000000 1.083633 2.859998 0.000000 1.324126 2.859256 0.000000 2.331664 4.988956 0.000000 2.890709 5.984246 0.000000 1.619568 6.007172 0.000000 0.935074 2.603798 0.000000 0.918712 2.590097 0.000000 0.934576 2.582428 0.000000 1.046754 2.949238 0.000000 0.777437 2.705519 0.000000 0.984030 2.607509 0.000000 0.946750 2.504651 0.000000 0.972076 2.530573 0.000000 0.940489 2.540016 0.000000 0.954913 2.602706 0.000000 0.930670 2.583778 0.000000 0.961822 2.575133 0.000000 1.010356 2.462857 0.000000 0.999455 2.453127 0.000000 1.015095 2.448430 0.000000 1.045815 2.478648 0.000000 1.008655 2.455631 0.000000 1.037871 2.453451 0.000000 1.748393 1.563920 0.000000 1.825603 1.625763 0.000000 1.747770 1.653021 0.000000 1.824117 1.657910 0.000000 1.720231 1.570502 0.000000 1.846401 1.526462 0.000000 2.016721 1.189959 0.000000 2.065773 1.231009 0.000000 2.013393 1.240540 0.000000 1.744459 -0.186268 0.000000 1.996981 0.147407 0.000000 1.592877 0.178126 0.000000 2.061111 1.183249 0.000000 2.066590 1.182222 0.000000 2.064208 1.187857 0.000000 1.915413 1.240929 0.000000 2.067004 1.228544 0.000000 2.007898 1.367758 0.000000 0.543113 1.005300 0.000000 0.400749 0.818134 0.000000 0.652832 0.778418 0.000000 0.479624 0.678721 0.000000 0.643829 0.808355 0.000000 0.423837 0.842997 0.000000 0.542533 0.831713 0.000000 0.289441 0.631654 0.000000 0.505340 0.524042 0.000000 0.127808 0.368745 0.000000 0.278981 0.492082 0.000000 0.153547 0.557232 0.000000 0.217163 0.516777 0.000000 0.066843 0.389388 0.000000 0.284720 0.376817 0.000000 -0.267454 -1.358380 0.000000 -0.222732 -1.360972 0.000000 -0.251177 -1.326056 0.000000 -0.240229 -1.212861 0.000000 -0.341466 -1.229499 0.000000 -0.251462 -1.340328 0.000000 -0.842262 -0.236291 0.000000 -0.890249 -0.318682 0.000000 -0.827722 -0.302617 0.000000 -0.527636 -1.306331 0.000000 -0.219551 -1.258209 0.000000 -0.388731 -0.974103 0.000000 -0.804284 -1.114752 0.000000 -0.895828 -1.109428 0.000000 -0.852613 -1.185039 0.000000 -0.931043 -0.320921 0.000000 -0.938702 -0.345010 0.000000 -0.933399 -0.346264 0.000000 -0.913099 1.160673 0.000000 -0.875325 1.211593 0.000000 -0.934252 1.215940 0.000000 -0.953918 0.865144 0.000000 -0.922948 0.862819 0.000000 -0.938124 0.893305 0.000000 -0.899047 0.879494 0.000000 -0.944793 0.880555 0.000000 -0.923557 0.839570 0.000000 -0.865490 1.852905 0.000000 -0.933683 1.763210 0.000000 -0.824975 1.749795 0.000000 -0.937762 1.137126 0.000000 -0.926554 1.154209 0.000000 -0.944923 1.156471 0.000000 -0.920607 1.696417 0.000000 -0.918869 1.698789 0.000000 -0.921896 1.698958 0.000000 -0.948666 2.245256 0.000000 -1.014625 2.119116 0.000000 -0.873191 2.122282 0.000000 -0.868473 2.110676 0.000000 -0.985966 2.108058 0.000000 -0.926390 2.008069 0.000000 -0.917648 1.926709 0.000000 -0.946695 1.928096 0.000000 -0.931052 1.902078 0.000000 -0.869272 2.054427 0.000000 -0.888694 2.018457 0.000000 -0.851408 2.019395 0.000000 -0.877217 2.166193 0.000000 -0.912587 2.162893 0.000000 -0.892633 2.135010 0.000000 -0.696866 2.374847 0.000000 -0.670096 2.380067 0.000000 -0.686648 2.402981 0.000000 -0.638572 2.364868 0.000000 -0.619351 2.368603 0.000000 -0.632161 2.380914 0.000000 -0.540654 2.480354 0.000000 -0.425151 2.530310 0.000000 -0.528802 2.629402 0.000000 -2.659147 4.652831 0.000000 -2.701064 4.579578 0.000000 -2.622448 4.584403 0.000000 -1.069150 3.335127 0.000000 -1.214384 3.271561 0.000000 -1.058265 3.122251 0.000000 -1.947976 3.742398 0.000000 -1.215256 3.794672 0.000000 -1.657399 4.215369 0.000000 -0.929200 2.928506 0.000000 -0.825010 3.109847 0.000000 -1.011538 3.115648 0.000000 -2.917441 4.910060 0.000000 -2.957799 4.835488 0.000000 -2.869795 4.832789 0.000000 8.217913 7.067300 0.000000 6.777754 5.117608 0.000000 8.009505 5.081103 0.000000 2.319931 4.340469 0.000000 2.627347 4.732360 0.000000 2.151938 4.711190 0.000000 3.819328 5.074898 0.000000 3.413978 5.062831 0.000000 3.561868 4.715577 0.000000 2.383507 4.389749 0.000000 2.426024 4.386504 0.000000 2.397925 4.452378 0.000000 2.139252 4.356877 0.000000 2.070096 4.269630 0.000000 2.159042 4.232488 0.000000 1.968335 4.469714 0.000000 1.836227 4.376168 0.000000 1.940387 4.331934 0.000000 1.165721 2.914058 0.000000 1.127499 2.886557 0.000000 1.162494 2.880522 0.000000 0.940503 2.600029 0.000000 0.931995 2.590087 0.000000 0.941893 2.591144 0.000000 1.069276 2.635081 0.000000 0.595198 2.715245 0.000000 0.910234 2.234185 0.000000 0.939228 2.596517 0.000000 1.251073 2.594436 0.000000 1.007230 2.967598 0.000000 1.130321 2.457194 0.000000 1.116327 2.432734 0.000000 1.139117 2.428371 0.000000 1.131961 2.384447 0.000000 1.143917 2.398310 0.000000 1.130259 2.400960 0.000000 0.830922 1.537879 0.000000 0.725720 1.352594 0.000000 0.944913 1.401729 0.000000 0.897605 1.299647 0.000000 0.729323 1.261894 0.000000 0.851592 1.167632 0.000000 0.740528 1.113560 0.000000 0.850199 1.185949 0.000000 0.738548 1.273593 0.000000 0.805924 1.193025 0.000000 0.707033 1.128736 0.000000 0.829744 1.071396 0.000000 0.718394 1.025055 0.000000 0.830391 1.073282 0.000000 0.711066 1.128663 0.000000 0.526504 0.695411 0.000000 0.675145 0.982907 0.000000 0.395973 0.965005 0.000000 0.830602 1.073382 0.000000 0.717808 1.024964 0.000000 0.781089 0.942106 0.000000 0.643255 1.005906 0.000000 0.671198 1.007602 0.000000 0.656933 1.026272 0.000000 0.614108 0.887496 0.000000 0.515674 0.698092 0.000000 0.705616 0.744058 0.000000 0.486551 0.265976 0.000000 0.576831 0.392329 0.000000 0.432101 0.375750 0.000000 0.602067 0.713060 0.000000 0.381724 0.659399 0.000000 0.573532 0.485469 0.000000 0.355911 0.452681 0.000000 0.573093 0.485822 0.000000 0.381416 0.659877 0.000000 0.195175 0.656616 0.000000 0.044469 0.440699 0.000000 0.265698 0.409585 0.000000 -0.285887 -1.362416 0.000000 -0.229870 -1.370413 0.000000 -0.254212 -1.325080 0.000000 -0.198308 -1.280747 0.000000 -0.293661 -1.292225 0.000000 -0.247494 -1.378604 0.000000 -0.885707 -0.384993 0.000000 -0.860701 -0.344331 0.000000 -0.899387 -0.333168 0.000000 -0.352324 -1.210836 0.000000 -0.380488 -1.214125 0.000000 -0.356663 -1.242279 0.000000 -0.386869 -0.968704 0.000000 -0.841212 -0.996738 0.000000 -0.545202 -1.348939 0.000000 -0.865843 -0.344958 0.000000 -0.896295 -0.389223 0.000000 -0.843912 -0.389419 0.000000 -0.937008 1.158067 0.000000 -0.956449 1.137144 0.000000 -0.926543 1.134403 0.000000 -0.840705 0.880115 0.000000 -0.978592 0.878850 0.000000 -0.899637 0.734898 0.000000 -1.015714 0.810185 0.000000 -0.894851 0.797632 0.000000 -0.956361 0.906766 0.000000 -0.977851 1.394992 0.000000 -0.887942 1.502529 0.000000 -1.037871 1.540566 0.000000 -0.957691 1.142017 0.000000 -0.948352 1.153637 0.000000 -0.959035 1.156317 0.000000 -0.890145 1.487081 0.000000 -0.977909 1.382118 0.000000 -0.874698 1.383832 0.000000 -0.979910 1.821296 0.000000 -0.928839 1.906734 0.000000 -1.026079 1.898284 0.000000 -1.010814 1.733482 0.000000 -0.814001 1.750732 0.000000 -0.928265 1.885371 0.000000 -0.909474 1.449572 0.000000 -0.967482 1.448621 0.000000 -0.909866 1.380863 0.000000 -0.928762 1.906688 0.000000 -0.980101 1.820890 0.000000 -0.894889 1.813047 0.000000 -0.861903 2.104853 0.000000 -0.941962 2.091394 0.000000 -0.901926 2.016162 0.000000 -0.915347 2.016260 0.000000 -0.960734 2.020420 0.000000 -0.941370 1.983998 0.000000 -0.709968 2.639598 0.000000 -0.804430 2.542063 0.000000 -0.705784 2.535336 0.000000 -0.947983 2.095699 0.000000 -0.894361 2.104689 0.000000 -0.939080 2.162313 0.000000 -0.661289 2.361610 0.000000 -0.674936 2.362482 0.000000 -0.665701 2.350563 0.000000 -0.972530 3.016036 0.000000 -1.124334 2.822335 0.000000 -0.862072 2.764629 0.000000 -0.731857 2.467377 0.000000 -0.614680 2.588550 0.000000 -0.772730 2.623410 0.000000 -1.233088 2.666681 0.000000 -1.033020 2.918580 0.000000 -1.319931 2.960782 0.000000 -3.099280 5.848457 0.000000 -3.154706 5.680578 0.000000 -2.981834 5.682791 0.000000 -1.871562 3.925846 0.000000 -1.238160 3.829048 0.000000 -1.533714 4.439602 0.000000 -2.497974 4.966659 0.000000 -2.733515 4.965206 0.000000 -2.621903 4.739887 0.000000 -3.864934 4.904751 0.000000 -4.235171 5.374335 0.000000 -4.244861 4.799724 0.000000 -3.690154 4.482667 0.000000 -3.355131 5.435506 0.000000 -4.093958 5.238070 0.000000 4.157217 6.395411 0.000000 2.861517 4.878891 0.000000 4.293828 4.599907 0.000000 0.957143 4.056863 0.000000 1.280760 4.348851 0.000000 1.030286 4.393859 0.000000 2.538891 4.632587 0.000000 2.676366 4.607457 0.000000 2.567620 4.834182 0.000000 2.712965 4.448150 0.000000 2.623561 4.468286 0.000000 2.678521 4.353293 0.000000 0.937205 3.994895 0.000000 0.978584 4.044583 0.000000 0.926055 4.065442 0.000000 1.228106 4.283788 0.000000 0.970525 4.051209 0.000000 1.257368 3.938908 0.000000 0.840753 3.355354 0.000000 1.187738 3.763868 0.000000 0.767214 3.750542 0.000000 0.781582 2.527253 0.000000 0.795321 2.527989 0.000000 0.784368 2.539907 0.000000 0.875964 2.638831 0.000000 0.879288 2.639815 0.000000 0.876392 2.643012 0.000000 0.957819 1.900794 0.000000 1.051797 1.930508 0.000000 1.023425 1.952102 0.000000 0.894010 1.866236 0.000000 1.014437 1.967551 0.000000 0.955473 2.032736 0.000000 0.963693 1.402692 0.000000 0.998303 1.506556 0.000000 0.909263 1.467754 0.000000 1.054085 1.908186 0.000000 0.648196 1.747442 0.000000 1.090526 1.479843 0.000000 0.779097 1.721688 0.000000 0.967223 1.803301 0.000000 0.757155 1.931263 0.000000 0.913784 1.519558 0.000000 0.843598 1.310585 0.000000 1.000834 1.353211 0.000000 0.837802 1.071405 0.000000 0.899345 1.136070 0.000000 0.825038 1.136689 0.000000 0.931580 1.314076 0.000000 0.839184 1.288946 0.000000 0.928598 1.189155 0.000000 0.805791 1.192843 0.000000 0.924916 1.193098 0.000000 0.839121 1.288832 0.000000 0.899203 1.139599 0.000000 0.836686 1.071931 0.000000 0.895905 1.071223 0.000000 0.706651 0.743944 0.000000 0.795412 0.866229 0.000000 0.640016 0.847929 0.000000 0.895930 1.065723 0.000000 0.836439 1.065735 0.000000 0.890024 0.999156 0.000000 0.670783 0.935976 0.000000 0.841465 0.956904 0.000000 0.729293 1.092154 0.000000 0.722727 0.749334 0.000000 0.714939 0.740681 0.000000 0.725782 0.737455 0.000000 0.476673 0.368072 0.000000 0.656733 0.476132 0.000000 0.497964 0.536555 0.000000 0.489367 0.735774 0.000000 0.316732 0.631792 0.000000 0.468550 0.564301 0.000000 0.281642 0.413871 0.000000 0.442489 0.555077 0.000000 0.211204 0.660800 0.000000 0.380878 0.624792 0.000000 0.219010 0.481774 0.000000 0.396181 0.437714 0.000000 -0.306205 -1.185732 0.000000 -0.347935 -1.210592 0.000000 -0.311705 -1.225757 0.000000 -0.364318 -1.329073 0.000000 -0.313274 -1.341828 0.000000 -0.334857 -1.275586 0.000000 -0.277237 -1.299294 0.000000 -0.334845 -1.275624 0.000000 -0.313268 -1.341862 0.000000 -0.624069 -0.855260 0.000000 -0.582519 -0.826681 0.000000 -0.622784 -0.817589 0.000000 -0.789390 -0.437038 0.000000 -0.723687 -0.330255 0.000000 -0.857259 -0.280439 0.000000 -0.722250 -0.329861 0.000000 -0.791460 -0.439890 0.000000 -0.675030 -0.421993 0.000000 -0.838789 0.765072 0.000000 -1.010550 0.738939 0.000000 -0.844895 0.567737 0.000000 -0.913806 0.697966 0.000000 -0.725785 0.752420 0.000000 -0.843573 0.874273 0.000000 -0.842572 1.195183 0.000000 -1.010470 1.145961 0.000000 -0.886418 1.057038 0.000000 -0.945816 1.100418 0.000000 -0.920843 1.118630 0.000000 -0.951301 1.140800 0.000000 -0.951560 1.335466 0.000000 -0.899230 1.397298 0.000000 -0.951191 1.388495 0.000000 -0.932851 1.326935 0.000000 -0.842140 1.342344 0.000000 -0.944468 1.405139 0.000000 -0.974875 1.163926 0.000000 -1.013062 1.136112 0.000000 -0.965310 1.106770 0.000000 -0.829481 1.750546 0.000000 -0.812751 1.766309 0.000000 -0.837256 1.772372 0.000000 -0.895484 1.377297 0.000000 -0.952231 1.310233 0.000000 -0.863103 1.288163 0.000000 -0.827471 1.774646 0.000000 -0.844446 1.758574 0.000000 -0.826942 1.753351 0.000000 -0.937929 2.155234 0.000000 -1.007234 2.102657 0.000000 -0.947972 2.081135 0.000000 -0.942722 1.981063 0.000000 -0.951492 1.984247 0.000000 -0.948652 1.973728 0.000000 -0.996897 1.853825 0.000000 -0.861402 1.812982 0.000000 -0.904585 1.972925 0.000000 -0.944659 2.562751 0.000000 -1.012548 2.495775 0.000000 -0.918747 2.464447 0.000000 -1.006487 2.096258 0.000000 -0.941387 2.145648 0.000000 -1.025041 2.173563 0.000000 -0.882961 2.600642 0.000000 -0.945153 2.539630 0.000000 -0.863343 2.513622 0.000000 -0.848897 3.110452 0.000000 -1.142639 2.850970 0.000000 -0.732969 2.718881 0.000000 -1.189303 2.767063 0.000000 -0.962151 2.968132 0.000000 -1.178660 3.022775 0.000000 -2.203625 4.447766 0.000000 -1.952367 4.878007 0.000000 -2.457481 4.889812 0.000000 -1.121183 3.277931 0.000000 -1.499515 3.293314 0.000000 -1.351957 2.919539 0.000000 -1.271563 3.094347 0.000000 -0.985482 3.022366 0.000000 -1.116141 3.354852 0.000000 -1.938832 4.972442 0.000000 -2.221431 4.488895 0.000000 -1.731625 4.401027 0.000000 -2.463898 4.309588 0.000000 -2.079512 4.824080 0.000000 -2.463590 4.895022 0.000000 -5.806985 4.645940 0.000000 -5.565572 4.382720 0.000000 -5.506275 4.700283 0.000000 -4.247050 4.999903 0.000000 -4.192620 5.071212 0.000000 -4.264349 5.058762 0.000000 