<?xml version='1.0'?>
<VTKFile type='UnstructuredGrid' version='0.1' byte_order='LittleEndian'><UnstructuredGrid>
<Piece NumberOfPoints='3000' NumberOfCells='0'>
<PointData Vectors='principal_stress_direction_1 principal_stress_direction_2 principal_stress_direction_3'>
<DataArray type='Float32' Name='principal_stress_direction_1' NumberOfComponents='3' format='ascii'>
-0.986343 0.164705 0.000000 0.626418 0.779487 0.000000 0.953898 -0.300130 0.000000 0.759371 -0.650657 0.000000 0.155219 -0.987880 0.000000 -0.094236 -0.995550 0.000000 -0.503739 -0.863856 0.000000 0.999995 0.003085 0.000000 0.531553 -0.847025 0.000000 -0.332587 -0.943073 0.000000 -0.967168 -0.254139 0.000000 -0.933739 -0.357954 0.000000 0.925051 -0.379842 0.000000 -0.963117 -0.269085 0.000000 -0.998230 0.059465 0.000000 0.997818 -0.066028 0.000000 0.890798 -0.454400 0.000000 0.900467 0.434925 0.000000 0.989751 -0.142803 0.000000 -0.501523 0.865144 0.000000 -0.666973 0.745082 0.000000 0.999911 -0.013328 0.000000 -0.508286 -0.861188 0.000000 -0.890044 -0.455875 0.000000 0.676783 -0.736183 0.000000 0.983553 -0.180620 0.000000 -0.720170 -0.693798 0.000000 0.160867 -0.986976 0.000000 0.654120 -0.756391 0.000000 0.900826 -0.434180 0.000000 0.035736 -0.999361 0.000000 0.510048 -0.860146 0.000000 -0.417634 -0.908616 0.000000 -0.548745 -0.835990 0.000000 -0.417217 -0.908807 0.000000 -0.999762 -0.021808 0.000000 -0.988311 -0.152448 0.000000 -0.884514 -0.466514 0.000000 -0.227773 -0.973714 0.000000 -0.734558 -0.678546 0.000000 -0.154281 0.988027 0.000000 -0.989532 -0.144317 0.000000 -0.764821 -0.644243 0.000000 0.521051 0.853526 0.000000 -0.704406 -0.709798 0.000000 -0.818408 0.574638 0.000000 0.299560 -0.954077 0.000000 -0.782835 0.622229 0.000000 0.911749 -0.410748 0.000000 -0.972902 -0.231219 0.000000 0.898955 -0.438040 0.000000 -0.941145 -0.338003 0.000000 0.868146 -0.496308 0.000000 -0.828529 -0.559946 0.000000 0.906795 -0.421572 0.000000 0.430087 -0.902787 0.000000 -0.005175 -0.999987 0.000000 -0.190626 -0.981663 0.000000 -0.174606 -0.984638 0.000000 -0.612841 -0.790206 0.000000 0.317154 -0.948374 0.000000 0.158655 -0.987334 0.000000 0.293023 -0.956106 0.000000 -0.452561 -0.891734 0.000000 -0.102522 -0.994731 0.000000 0.120161 -0.992754 0.000000 0.553325 -0.832966 0.000000 -0.751791 -0.659401 0.000000 -0.807499 -0.589869 0.000000 -0.978249 -0.207433 0.000000 -0.379232 0.925302 0.000000 0.776219 -0.630464 0.000000 0.554392 0.832255 0.000000 0.894541 -0.446986 0.000000 -0.254248 0.967139 0.000000 -0.981408 -0.191932 0.000000 -0.977828 -0.209410 0.000000 0.997087 -0.076273 0.000000 0.965087 0.261930 0.000000 0.254186 -0.967155 0.000000 0.845328 0.534248 0.000000 0.882063 -0.471131 0.000000 -0.505755 -0.862677 0.000000 -0.504189 0.863593 0.000000 -0.138788 -0.990322 0.000000 0.894990 -0.446086 0.000000 0.895372 -0.445318 0.000000 -0.492998 -0.870031 0.000000 -0.890630 -0.454729 0.000000 -0.057595 -0.998340 0.000000 -0.568618 -0.822602 0.000000 0.373314 -0.927705 0.000000 -0.993232 -0.116149 0.000000 0.531799 -0.846870 0.000000 0.353193 -0.935550 0.000000 0.998793 -0.049123 0.000000 0.804477 -0.593983 0.000000 -0.483000 -0.875620 0.000000 0.175964 -0.984397 0.000000 0.049070 -0.998795 0.000000 0.527943 -0.849280 0.000000 0.768262 -0.640136 0.000000 0.845458 -0.534042 0.000000 0.880583 -0.473892 0.000000 -0.671562 -0.740948 0.000000 -0.482217 -0.876052 0.000000 -0.311996 -0.950084 0.000000 -0.999979 -0.006447 0.000000 -0.980551 -0.196265 0.000000 0.981548 -0.191216 0.000000 -0.530744 -0.847532 0.000000 0.314406 -0.949289 0.000000 0.757917 -0.652351 0.000000 -0.936735 -0.350039 0.000000 0.991314 -0.131518 0.000000 -0.722662 -0.691201 0.000000 0.446890 -0.894589 0.000000 -0.703957 -0.710243 0.000000 0.994646 -0.103345 0.000000 0.933020 -0.359825 0.000000 -0.638378 -0.769723 0.000000 -0.965879 -0.258993 0.000000 0.948145 -0.317838 0.000000 -0.952323 -0.305090 0.000000 -0.060749 -0.998153 0.000000 0.959306 -0.282368 0.000000 -0.676291 0.736635 0.000000 -0.858773 0.512356 0.000000 -0.447043 -0.894512 0.000000 0.577229 -0.816583 0.000000 -0.993129 -0.117026 0.000000 -0.994370 -0.105968 0.000000 0.934824 0.355111 0.000000 0.676887 0.736087 0.000000 -0.763343 0.645994 0.000000 -0.870842 -0.491562 0.000000 0.995481 -0.094963 0.000000 0.383280 -0.923632 0.000000 -0.992473 -0.122460 0.000000 0.263508 0.964657 0.000000 0.920739 -0.390179 0.000000 0.549714 -0.835353 0.000000 0.131986 -0.991252 0.000000 0.960745 -0.277433 0.000000 -0.374982 -0.927032 0.000000 0.947997 -0.318279 0.000000 -0.706172 -0.708041 0.000000 -0.668518 -0.743696 0.000000 0.754049 -0.656818 0.000000 -0.299563 -0.954076 0.000000 0.228860 -0.973459 0.000000 0.978469 -0.206394 0.000000 0.699515 -0.714618 0.000000 0.888681 -0.458526 0.000000 -0.776639 -0.629946 0.000000 0.224119 -0.974562 0.000000 0.920304 -0.391203 0.000000 -0.992019 -0.126085 0.000000 0.666682 -0.745342 0.000000 0.923789 -0.382903 0.000000 0.890948 -0.454104 0.000000 -0.047972 -0.998849 0.000000 0.412366 -0.911018 0.000000 0.501403 -0.865214 0.000000 -0.877741 -0.479135 0.000000 -0.354618 -0.935011 0.000000 0.601077 -0.799191 0.000000 0.831944 -0.554859 0.000000 0.997326 -0.073085 0.000000 0.078650 0.996902 0.000000 0.820837 0.571163 0.000000 -0.955160 -0.296090 0.000000 -0.597205 -0.802088 0.000000 0.037022 -0.999314 0.000000 0.063735 -0.997967 0.000000 0.455278 -0.890349 0.000000 -0.635283 0.772279 0.000000 0.798777 -0.601627 0.000000 0.969785 0.243961 0.000000 -0.447502 0.894283 0.000000 -0.295292 -0.955407 0.000000 0.715874 0.698230 0.000000 -0.731380 0.681970 0.000000 -0.957103 -0.289746 0.000000 0.398602 -0.917124 0.000000 0.765276 -0.643702 0.000000 -0.192564 -0.981284 0.000000 0.787830 -0.615893 0.000000 -0.006346 -0.999980 0.000000 -0.207660 0.978201 0.000000 0.811679 -0.584103 0.000000 -0.789792 -0.613375 0.000000 0.640620 0.767858 0.000000 -0.881889 -0.471457 0.000000 -0.677946 -0.735111 0.000000 0.999894 -0.014576 0.000000 0.838774 -0.544480 0.000000 0.947138 -0.320828 0.000000 -0.173023 -0.984918 0.000000 -0.297659 -0.954672 0.000000 -0.979658 -0.200677 0.000000 -0.924584 -0.380977 0.000000 0.340276 -0.940326 0.000000 0.790448 -0.612529 0.000000 0.242715 -0.970098 0.000000 -0.244149 -0.969738 0.000000 -0.909065 -0.416655 0.000000 -0.532287 -0.846564 0.000000 0.915857 -0.401505 0.000000 0.420013 -0.907518 0.000000 0.646036 -0.763307 0.000000 0.839172 -0.543867 0.000000 -0.663977 -0.747753 0.000000 -0.973284 -0.229605 0.000000 -0.497391 -0.867526 0.000000 -0.999008 -0.044531 0.000000 -0.062830 -0.998024 0.000000 0.034536 -0.999403 0.000000 -0.169636 -0.985507 0.000000 -0.396120 -0.918199 0.000000 0.764763 -0.644311 0.000000 -0.659895 -0.751358 0.000000 0.988744 -0.149620 0.000000 0.999597 -0.028400 0.000000 -0.570692 -0.821164 0.000000 -0.995214 -0.097723 0.000000 0.710560 -0.703636 0.000000 -0.629091 -0.777331 0.000000 0.969404 -0.245469 0.000000 0.241099 -0.970501 0.000000 0.872063 -0.489393 0.000000 0.997507 -0.070574 0.000000 0.153808 -0.988101 0.000000 0.994867 -0.101193 0.000000 0.750452 -0.660925 0.000000 -0.218075 -0.975932 0.000000 0.173511 0.984832 0.000000 0.923377 0.383894 0.000000 0.124653 -0.992200 0.000000 0.736294 -0.676662 0.000000 -0.926395 -0.376552 0.000000 -0.859605 0.510960 0.000000 0.331681 -0.943392 0.000000 -0.566560 -0.824021 0.000000 0.591792 -0.806091 0.000000 0.054002 -0.998541 0.000000 0.671559 -0.740951 0.000000 0.460183 -0.887824 0.000000 -0.915164 -0.403083 0.000000 0.648222 -0.761452 0.000000 -0.573723 -0.819050 0.000000 -0.989879 -0.141911 0.000000 -0.088309 -0.996093 0.000000 -0.396837 -0.917889 0.000000 0.784692 -0.619886 0.000000 -0.983198 -0.182544 0.000000 0.394696 -0.918812 0.000000 -0.856431 -0.516261 0.000000 0.994565 -0.104114 0.000000 -0.994998 -0.099900 0.000000 0.807257 -0.590200 0.000000 0.305258 -0.952270 0.000000 0.531472 -0.847076 0.000000 0.434705 -0.900573 0.000000 0.048483 -0.998824 0.000000 -0.506409 -0.862293 0.000000 -0.414016 -0.910270 0.000000 -0.679168 -0.733983 0.000000 0.911636 -0.410999 0.000000 0.252878 -0.967498 0.000000 -0.522830 -0.852437 0.000000 -0.992233 -0.124392 0.000000 -0.842646 -0.538469 0.000000 -0.181227 -0.983441 0.000000 -0.207779 -0.978176 0.000000 0.485511 -0.874230 0.000000 0.499796 -0.866143 0.000000 -0.074109 -0.997250 0.000000 0.996281 -0.086158 0.000000 -0.321249 -0.946995 0.000000 0.947517 -0.319705 0.000000 -0.475724 -0.879595 0.000000 0.722153 0.691733 0.000000 -0.859928 -0.510416 0.000000 -0.992093 -0.125505 0.000000 -0.588195 0.808719 0.000000 0.544460 -0.838787 0.000000 0.248344 -0.968672 0.000000 0.806529 -0.591194 0.000000 -0.107348 -0.994222 0.000000 -0.970609 -0.240663 0.000000 -0.704323 -0.709880 0.000000 -0.150040 -0.988680 0.000000 -0.935761 -0.352636 0.000000 -0.796415 -0.604751 0.000000 -0.290688 -0.956818 0.000000 0.718345 -0.695688 0.000000 0.944093 -0.329680 0.000000 -0.997873 -0.065188 0.000000 -0.727129 -0.686501 0.000000 -0.067682 -0.997707 0.000000 0.396257 -0.918140 0.000000 -0.533867 -0.845568 0.000000 -0.097062 -0.995278 0.000000 -0.215118 -0.976588 0.000000 0.952472 -0.304626 0.000000 -0.552009 -0.833838 0.000000 -0.474392 -0.880314 0.000000 -0.033514 -0.999438 0.000000 0.509613 -0.860404 0.000000 0.527356 -0.849644 0.000000 0.895209 -0.445648 0.000000 0.530253 -0.847840 0.000000 0.799986 -0.600019 0.000000 0.668181 -0.743999 0.000000 0.858733 -0.512424 0.000000 -0.651535 -0.758619 0.000000 0.896468 -0.443108 0.000000 0.252773 -0.967526 0.000000 -0.552237 -0.833687 0.000000 0.853159 -0.521650 0.000000 0.294270 -0.955722 0.000000 0.950489 -0.310760 0.000000 0.120158 -0.992755 0.000000 0.569785 -0.821794 0.000000 -0.185707 -0.982605 0.000000 0.985025 -0.172413 0.000000 0.288868 -0.957369 0.000000 -0.973866 -0.227125 0.000000 -0.519186 -0.854661 0.000000 0.244773 -0.969580 0.000000 0.053870 -0.998548 0.000000 -0.994694 -0.102879 0.000000 -0.684619 -0.728901 0.000000 0.742199 -0.670179 0.000000 0.171595 -0.985168 0.000000 0.037259 -0.999306 0.000000 -0.253334 -0.967379 0.000000 -0.721975 -0.691919 0.000000 -0.323725 -0.946151 0.000000 -0.719008 -0.695001 0.000000 -0.975161 -0.221499 0.000000 0.303273 -0.952904 0.000000 0.354748 -0.934962 0.000000 0.430402 -0.902637 0.000000 0.732662 -0.680593 0.000000 0.254128 -0.967171 0.000000 0.911449 -0.411413 0.000000 0.986899 -0.161340 0.000000 0.694287 -0.719699 0.000000 0.172673 -0.984979 0.000000 -0.092049 -0.995754 0.000000 0.022474 -0.999747 0.000000 0.021177 -0.999776 0.000000 -0.993043 -0.117751 0.000000 0.592406 -0.805639 0.000000 -0.575257 -0.817972 0.000000 0.806589 -0.591112 0.000000 0.592164 -0.805817 0.000000 -0.148240 -0.988951 0.000000 -0.821796 -0.569782 0.000000 -0.791755 -0.610838 0.000000 -0.392412 -0.919790 0.000000 0.971234 -0.238127 0.000000 -0.320017 -0.947412 0.000000 -0.600254 -0.799809 0.000000 -0.243833 -0.969817 0.000000 0.494379 -0.869246 0.000000 -0.892074 -0.451890 0.000000 -0.789874 -0.613269 0.000000 0.619133 -0.785286 0.000000 -0.104407 -0.994535 0.000000 0.889007 -0.457893 0.000000 -0.987136 -0.159882 0.000000 0.865021 0.501736 0.000000 0.914481 -0.404628 0.000000 -0.679752 0.733442 0.000000 -0.083613 -0.996498 0.000000 -0.658976 -0.752164 0.000000 0.141254 -0.989973 0.000000 0.457563 -0.889177 0.000000 0.845783 -0.533527 0.000000 0.668470 -0.743739 0.000000 0.952365 -0.304959 0.000000 0.915405 -0.402534 0.000000 0.957098 -0.289765 0.000000 0.943069 -0.332596 0.000000 0.764056 -0.645150 0.000000 0.238370 -0.971174 0.000000 0.630975 -0.775803 0.000000 0.013542 -0.999908 0.000000 0.665083 -0.746769 0.000000 0.921966 -0.387270 0.000000 0.672181 -0.740387 0.000000 0.877416 -0.479730 0.000000 0.966056 -0.258332 0.000000 0.995114 -0.098731 0.000000 0.978333 -0.207035 0.000000 -0.535548 -0.844505 0.000000 0.859250 -0.511556 0.000000 -0.284745 -0.958603 0.000000 -0.799891 -0.600146 0.000000 -0.550478 -0.834850 0.000000 -0.652000 -0.758219 0.000000 -0.097057 -0.995279 0.000000 0.225137 -0.974327 0.000000 0.009747 -0.999953 0.000000 -0.249796 -0.968298 0.000000 -0.347082 -0.937835 0.000000 0.133937 -0.990990 0.000000 -0.680012 -0.733201 0.000000 0.382476 -0.923965 0.000000 -0.493183 -0.869926 0.000000 0.670415 -0.741986 0.000000 0.999235 -0.039104 0.000000 -0.997659 -0.068380 0.000000 -0.066054 -0.997816 0.000000 0.637307 -0.770610 0.000000 0.057134 -0.998367 0.000000 -0.728220 -0.685343 0.000000 0.772369 -0.635174 0.000000 0.151088 -0.988520 0.000000 0.321457 -0.946924 0.000000 0.496373 -0.868109 0.000000 0.607522 -0.794303 0.000000 -0.918575 -0.395246 0.000000 -0.077544 -0.996989 0.000000 -0.418888 -0.908038 0.000000 -0.641441 -0.767172 0.000000 -0.830529 -0.556975 0.000000 -0.099692 -0.995018 0.000000 0.994444 -0.105265 0.000000 0.452393 -0.891819 0.000000 0.162345 -0.986734 0.000000 0.589177 0.808004 0.000000 -0.589479 0.807784 0.000000 -0.008032 -0.999968 0.000000 -0.969271 -0.245995 0.000000 0.837000 0.547202 0.000000 -0.538636 0.842539 0.000000 0.812560 0.582877 0.000000 0.328120 0.944636 0.000000 -0.491038 0.871138 0.000000 0.877963 -0.478728 0.000000 0.813881 -0.581032 0.000000 -0.796942 -0.604055 0.000000 0.850874 -0.525370 0.000000 0.918893 -0.394507 0.000000 0.776158 -0.630539 0.000000 -0.912388 -0.409327 0.000000 -0.011586 -0.999933 0.000000 -0.996257 -0.086444 0.000000 -0.872440 -0.488722 0.000000 0.973672 -0.227955 0.000000 0.499073 -0.866560 0.000000 -0.748453 -0.663188 0.000000 -0.997799 -0.066304 0.000000 -0.551035 -0.834482 0.000000 -0.845526 -0.533934 0.000000 -0.718947 -0.695065 0.000000 0.445855 -0.895105 0.000000 -0.552489 -0.833520 0.000000 -0.658378 -0.752687 0.000000 0.725062 -0.688684 0.000000 0.922729 -0.385450 0.000000 0.666689 -0.745336 0.000000 -0.925513 -0.378716 0.000000 -0.797347 -0.603521 0.000000 -0.629687 -0.776849 0.000000 -0.844287 -0.535891 0.000000 0.996698 -0.081204 0.000000 -0.827353 -0.561682 0.000000 0.699562 -0.714572 0.000000 0.032264 -0.999479 0.000000 -0.131630 -0.991299 0.000000 -0.180009 -0.983665 0.000000 -0.706500 -0.707713 0.000000 0.930276 -0.366861 0.000000 -0.822489 -0.568781 0.000000 0.946651 -0.322262 0.000000 -0.807184 -0.590300 0.000000 -0.916524 -0.399980 0.000000 -0.525000 -0.851102 0.000000 -0.863890 -0.503681 0.000000 -0.519479 -0.854483 0.000000 -0.782999 -0.622022 0.000000 -0.550745 -0.834674 0.000000 -0.458436 -0.888728 0.000000 -0.208063 -0.978116 0.000000 -0.851355 0.524590 0.000000 -0.601182 -0.799112 0.000000 0.909419 -0.415882 0.000000 0.480797 -0.876832 0.000000 0.421080 -0.907024 0.000000 0.952528 -0.304451 0.000000 -0.777179 -0.629279 0.000000 -0.394292 -0.918985 0.000000 0.870689 -0.491834 0.000000 -0.982184 -0.187923 0.000000 0.966564 -0.256424 0.000000 -0.996859 -0.079203 0.000000 0.994062 0.108817 0.000000 0.269287 -0.963060 0.000000 -0.979926 -0.199361 0.000000 0.537036 0.843559 0.000000 0.915197 -0.403008 0.000000 -0.562592 -0.826735 0.000000 -0.979929 -0.199345 0.000000 0.860143 -0.510053 0.000000 -0.375230 -0.926932 0.000000 0.599078 -0.800690 0.000000 0.196878 0.980428 0.000000 0.995096 -0.098915 0.000000 0.558065 0.829797 0.000000 0.534193 -0.845362 0.000000 -0.531896 0.846809 0.000000 0.893131 0.449796 0.000000 -0.892782 -0.450490 0.000000 -0.319246 -0.947672 0.000000 0.989792 -0.142517 0.000000 -0.792397 -0.610006 0.000000 0.261356 -0.965242 0.000000 0.474504 -0.880253 0.000000 -0.166956 -0.985964 0.000000 -0.677557 -0.735470 0.000000 0.971049 -0.238881 0.000000 0.078571 -0.996908 0.000000 -0.131665 -0.991294 0.000000 -0.609215 -0.793005 0.000000 0.395076 -0.918648 0.000000 -0.674037 -0.738697 0.000000 0.484363 -0.874867 0.000000 0.370486 -0.928838 0.000000 0.557640 -0.830083 0.000000 0.294672 -0.955598 0.000000 0.983257 -0.182223 0.000000 -0.629739 -0.776807 0.000000 -0.968024 -0.250857 0.000000 0.989244 -0.146276 0.000000 -0.975832 -0.218522 0.000000 0.119527 -0.992831 0.000000 0.089296 -0.996005 0.000000 -0.999954 -0.009628 0.000000 -0.303839 -0.952723 0.000000 -0.554036 -0.832493 0.000000 0.175641 -0.984454 0.000000 0.999466 -0.032681 0.000000 0.933626 -0.358250 0.000000 0.198209 -0.980160 0.000000 0.551215 -0.834363 0.000000 0.349341 -0.936996 0.000000 -0.771383 -0.636371 0.000000 -0.921932 -0.387351 0.000000 -0.608095 -0.793864 0.000000 -0.881156 -0.472825 0.000000 -0.756843 -0.653597 0.000000 0.794498 -0.607267 0.000000 -0.594251 -0.804280 0.000000 -0.233976 -0.972242 0.000000 -0.869616 -0.493729 0.000000 0.897285 -0.441452 0.000000 0.888375 -0.459119 0.000000 0.319960 -0.947431 0.000000 0.698881 -0.715238 0.000000 -0.993176 -0.116626 0.000000 0.247826 -0.968804 0.000000 -0.898777 -0.438406 0.000000 -0.999907 -0.013667 0.000000 0.980122 -0.198394 0.000000 -0.205644 -0.978627 0.000000 0.514625 -0.857415 0.000000 0.608861 -0.793277 0.000000 0.798929 -0.601425 0.000000 0.855147 -0.518385 0.000000 -0.922493 -0.386015 0.000000 -0.926821 -0.375503 0.000000 -0.920744 -0.390168 0.000000 -0.648324 -0.761364 0.000000 -0.919017 -0.394217 0.000000 -0.075359 -0.997156 0.000000 -0.600756 -0.799432 0.000000 -0.780296 -0.625411 0.000000 -0.569586 -0.821932 0.000000 -0.536682 -0.843785 0.000000 0.945047 -0.326933 0.000000 0.334126 0.942528 0.000000 -0.997851 -0.065519 0.000000 0.290974 0.956731 0.000000 -0.965118 -0.261816 0.000000 0.198438 -0.980114 0.000000 -0.877907 -0.478831 0.000000 0.933831 -0.357715 0.000000 0.968441 -0.249245 0.000000 0.979381 -0.202023 0.000000 -0.692787 -0.721142 0.000000 0.941685 -0.336495 0.000000 0.914605 -0.404349 0.000000 -0.504473 -0.863428 0.000000 -0.067419 -0.997725 0.000000 -0.914533 -0.404512 0.000000 -0.773987 -0.633201 0.000000 -0.365640 -0.930756 0.000000 0.656759 -0.754101 0.000000 -0.613251 -0.789888 0.000000 0.050049 -0.998747 0.000000 -0.999943 -0.010680 0.000000 0.840028 -0.542543 0.000000 0.933702 -0.358051 0.000000 0.925564 -0.378591 0.000000 -0.853981 -0.520304 0.000000 -0.826651 -0.562715 0.000000 -0.463125 -0.886293 0.000000 -0.990024 -0.140896 0.000000 0.974829 -0.222956 0.000000 -0.739330 -0.673343 0.000000 -0.949759 -0.312983 0.000000 -0.943802 -0.330511 0.000000 -0.896836 -0.442364 0.000000 0.262929 -0.964815 0.000000 -0.271787 -0.962357 0.000000 -0.955491 -0.295019 0.000000 0.946934 -0.321428 0.000000 0.758486 -0.651690 0.000000 0.567186 -0.823590 0.000000 -0.949090 -0.315006 0.000000 0.916116 -0.400913 0.000000 0.962376 -0.271722 0.000000 -0.999994 -0.003556 0.000000 0.944196 -0.329383 0.000000 0.981000 -0.194010 0.000000 0.869200 -0.494461 0.000000 -0.888727 -0.458437 0.000000 -0.999857 -0.016908 0.000000 0.342167 -0.939639 0.000000 0.923311 -0.384053 0.000000 0.893210 -0.449639 0.000000 0.632213 -0.774794 0.000000 0.680387 -0.732853 0.000000 0.953505 -0.301376 0.000000 -0.646111 0.763243 0.000000 -0.757500 -0.652835 0.000000 -0.954656 -0.297712 0.000000 0.215269 0.976555 0.000000 0.987036 -0.160501 0.000000 -0.993957 -0.109770 0.000000 -0.945110 -0.326751 0.000000 0.592733 -0.805399 0.000000 -0.886940 -0.461884 0.000000 0.602778 -0.797909 0.000000 -0.670129 -0.742245 0.000000 0.999459 -0.032894 0.000000 -0.691159 -0.722703 0.000000 0.129910 -0.991526 0.000000 0.557438 -0.830219 0.000000 -0.476911 -0.878952 0.000000 0.990194 -0.139700 0.000000 -0.703966 -0.710234 0.000000 -0.993951 0.109824 0.000000 -0.262768 -0.964859 0.000000 0.414428 0.910082 0.000000 0.982192 -0.187880 0.000000 -0.999208 -0.039787 0.000000 0.716771 0.697309 0.000000 0.308521 -0.951217 0.000000 -0.235036 -0.971987 0.000000 0.615764 -0.787931 0.000000 0.564374 -0.825519 0.000000 0.601979 -0.798512 0.000000 0.935399 -0.353594 0.000000 -0.921401 -0.388613 0.000000 -0.587917 -0.808921 0.000000 -0.707288 -0.706926 0.000000 -0.945157 -0.326617 0.000000 -0.632395 -0.774646 0.000000 0.030069 -0.999548 0.000000 0.995007 -0.099803 0.000000 0.855339 -0.518069 0.000000 0.912506 -0.409063 0.000000 -0.376044 -0.926602 0.000000 0.893431 -0.449201 0.000000 -0.693332 -0.720618 0.000000 -0.986615 -0.163067 0.000000 -0.589180 -0.808002 0.000000 -0.998846 -0.048024 0.000000 -0.853061 -0.521811 0.000000 0.976355 -0.216175 0.000000 -0.966314 -0.257368 0.000000 -0.971353 -0.237642 0.000000 -0.764543 -0.644572 0.000000 -0.673906 -0.738817 0.000000 0.587152 -0.809476 0.000000 -0.950157 -0.311771 0.000000 -0.990208 -0.139600 0.000000 0.922434 -0.386156 0.000000 -0.028192 0.999603 0.000000 -0.804117 0.594471 0.000000 0.925487 -0.378779 0.000000 -0.972522 -0.232812 0.000000 -0.586420 -0.810007 0.000000 -0.966885 -0.255214 0.000000 -0.848344 -0.529445 0.000000 -0.999997 -0.002299 0.000000 0.999504 -0.031486 0.000000 -0.979179 -0.202997 0.000000 0.167215 -0.985920 0.000000 -0.962558 -0.271074 0.000000 -0.710195 -0.704005 0.000000 -0.946828 -0.321739 0.000000 -0.992111 -0.125360 0.000000 0.740665 -0.671875 0.000000 0.532485 -0.846439 0.000000 0.252060 -0.967712 0.000000 -0.553297 -0.832984 0.000000 0.999972 -0.007481 0.000000 0.406737 -0.913545 0.000000 0.889174 -0.457569 0.000000 -0.979026 -0.203735 0.000000 -0.036166 -0.999346 0.000000 0.031450 -0.999505 0.000000 0.430195 -0.902736 0.000000 -0.692983 -0.720954 0.000000 0.985611 -0.169031 0.000000 -0.782554 -0.622583 0.000000 -0.940495 -0.339808 0.000000 -0.798961 -0.601383 0.000000 -0.568423 -0.822736 0.000000 0.406958 -0.913447 0.000000 0.963713 -0.266941 0.000000 0.709950 -0.704252 0.000000 -0.900904 -0.434019 0.000000 0.816435 -0.577438 0.000000 0.922324 -0.386417 0.000000 0.948938 0.315462 0.000000 -0.901050 -0.433716 0.000000 0.565250 -0.824919 0.000000 0.968386 0.249455 0.000000 0.069697 -0.997568 0.000000 0.689025 -0.724738 0.000000 0.504423 0.863457 0.000000 0.350866 -0.936426 0.000000 0.532040 0.846719 0.000000 -0.057718 -0.998333 0.000000 0.630073 -0.776536 0.000000 -0.118604 -0.992942 0.000000 0.717127 0.696943 0.000000 0.473415 -0.880840 0.000000 0.977373 0.211525 0.000000 0.797152 0.603779 0.000000 0.738214 -0.674566 0.000000 -0.976980 -0.213329 0.000000 0.323645 -0.946179 0.000000 -0.998018 -0.062930 0.000000 0.725983 -0.687713 0.000000 0.919474 -0.393150 0.000000 -0.952960 -0.303096 0.000000 0.953931 -0.300028 0.000000 0.022314 -0.999751 0.000000 0.051783 -0.998658 0.000000 -0.158568 -0.987348 0.000000 0.957908 -0.287075 0.000000 -0.703991 -0.710209 0.000000 0.989420 -0.145076 0.000000 -0.885020 -0.465554 0.000000 -0.978172 -0.207797 0.000000 0.827974 -0.560766 0.000000 -0.701560 -0.712610 0.000000 0.641067 -0.767485 0.000000 0.768284 -0.640109 0.000000 -0.427345 -0.904089 0.000000 -0.921071 -0.389394 0.000000 -0.863105 -0.505024 0.000000 0.122542 -0.992463 0.000000 0.715171 -0.698949 0.000000 -0.946035 -0.324063 0.000000 0.054484 -0.998515 0.000000 0.117008 -0.993131 0.000000 0.086973 -0.996211 0.000000 0.999739 -0.022826 0.000000 -0.157913 -0.987453 0.000000 -0.647598 -0.761982 0.000000 0.995229 -0.097567 0.000000 -0.999852 -0.017182 0.000000 0.999864 -0.016468 0.000000 0.987947 -0.154792 0.000000 0.729607 -0.683867 0.000000 0.063963 0.997952 0.000000 -0.904240 0.427025 0.000000 -0.069142 -0.997607 0.000000 -0.986979 -0.160852 0.000000 -0.938641 -0.344896 0.000000 -0.503008 -0.864282 0.000000 -0.751205 -0.660069 0.000000 0.833575 -0.552406 0.000000 0.520199 -0.854045 0.000000 -1.000000 -0.000150 0.000000 0.740035 -0.672568 0.000000 0.933888 -0.357565 0.000000 -0.643284 -0.765627 0.000000 -0.637386 -0.770545 0.000000 0.983777 -0.179396 0.000000 -0.999600 -0.028290 0.000000 0.739532 -0.673121 0.000000 -0.867358 -0.497684 0.000000 0.945831 -0.324659 0.000000 0.997426 -0.071697 0.000000 -0.552158 -0.833740 0.000000 -0.823518 -0.567290 0.000000 -0.011180 -0.999938 0.000000 -0.118976 -0.992897 0.000000 0.124402 -0.992232 0.000000 -0.878184 -0.478324 0.000000 0.012584 -0.999921 0.000000 -0.086156 -0.996282 0.000000 -0.466697 -0.884417 0.000000 -0.368195 -0.929749 0.000000 -0.990298 0.138963 0.000000 0.097415 -0.995244 0.000000 0.380348 -0.924844 0.000000 -0.867054 -0.498214 0.000000 -0.231828 -0.972757 0.000000 -0.042269 0.999106 0.000000 0.482195 -0.876064 0.000000 -0.993333 -0.115284 0.000000 -0.457736 -0.889088 0.000000 -0.963766 -0.266748 0.000000 -0.959189 -0.282767 0.000000 -0.151581 -0.988445 0.000000 0.543573 -0.839362 0.000000 -0.785988 -0.618242 0.000000 -0.887908 -0.460022 0.000000 0.147635 -0.989042 0.000000 0.426473 -0.904500 0.000000 0.194614 -0.980880 0.000000 0.457216 -0.889356 0.000000 -0.934799 -0.355178 0.000000 -0.804532 -0.593909 0.000000 -0.528998 -0.848623 0.000000 -0.773734 -0.633511 0.000000 -0.678300 -0.734785 0.000000 -0.818647 -0.574298 0.000000 -0.364588 -0.931169 0.000000 -0.316119 -0.948719 0.000000 -0.844123 -0.536150 0.000000 0.634622 -0.772823 0.000000 0.704210 -0.709992 0.000000 0.929742 -0.368213 0.000000 -0.370782 -0.928720 0.000000 -0.144351 -0.989526 0.000000 0.999004 -0.044629 0.000000 -0.773570 -0.633711 0.000000 -0.934140 -0.356905 0.000000 -0.422142 -0.906530 0.000000 -0.203074 -0.979163 0.000000 -0.977448 -0.211177 0.000000 -0.303674 -0.952776 0.000000 0.384737 0.923026 0.000000 -0.205717 0.978612 0.000000 0.758016 -0.652236 0.000000 -0.991675 -0.128765 0.000000 0.979810 -0.199930 0.000000 0.877466 -0.479638 0.000000 0.319072 -0.947730 0.000000 0.943306 -0.331925 0.000000 0.905667 -0.423990 0.000000 -0.922801 -0.385278 0.000000 0.902039 -0.431654 0.000000 0.776661 -0.629919 0.000000 -0.886402 -0.462917 0.000000 -0.993717 -0.111922 0.000000 -0.865524 -0.500868 0.000000 -0.630922 -0.775846 0.000000 0.356508 0.934292 0.000000 0.696185 -0.717862 0.000000 0.887016 -0.461738 0.000000 0.939174 -0.343442 0.000000 0.645838 -0.763474 0.000000 0.168891 0.985635 0.000000 -0.120006 -0.992773 0.000000 0.236723 -0.971577 0.000000 0.827487 -0.561485 0.000000 0.576727 -0.816937 0.000000 -0.995650 -0.093173 0.000000 -0.915192 -0.403018 0.000000 -0.992132 -0.125195 0.000000 -0.927798 -0.373084 0.000000 0.967164 -0.254154 0.000000 -0.996572 -0.082733 0.000000 0.125543 -0.992088 0.000000 -0.209925 -0.977718 0.000000 0.984786 -0.173774 0.000000 0.777420 0.628982 0.000000 -0.814564 -0.580074 0.000000 0.968934 -0.247318 0.000000 -0.273256 -0.961941 0.000000 -0.128968 -0.991649 0.000000 -0.185312 -0.982680 0.000000 0.618924 -0.785451 0.000000 0.595041 0.803695 0.000000 0.423963 -0.905680 0.000000 -0.102171 -0.994767 0.000000 0.667930 0.744224 0.000000 -0.287069 -0.957910 0.000000 -0.572346 -0.820013 0.000000 0.442858 -0.896592 0.000000 0.339430 -0.940631 0.000000 -0.993831 -0.110909 0.000000 0.988308 -0.152469 0.000000 -0.995553 -0.094203 0.000000 -0.706907 -0.707306 0.000000 -0.883966 -0.467552 0.000000 -0.890403 -0.455173 0.000000 0.358171 -0.933656 0.000000 0.052940 -0.998598 0.000000 0.741405 -0.671058 0.000000 -0.999818 0.019084 0.000000 0.712209 -0.701967 0.000000 -0.861610 -0.507570 0.000000 0.303956 0.952686 0.000000 -0.939969 -0.341260 0.000000 -0.853409 -0.521242 0.000000 0.993412 -0.114593 0.000000 0.920371 -0.391046 0.000000 0.957598 -0.288107 0.000000 0.916551 -0.399919 0.000000 0.994125 -0.108234 0.000000 -0.887044 -0.461685 0.000000 -0.986583 -0.163263 0.000000 0.124557 -0.992212 0.000000 -0.954644 -0.297751 0.000000 -0.854090 -0.520125 0.000000 -0.205495 -0.978658 0.000000 0.996301 -0.085933 0.000000 -0.956323 -0.292312 0.000000 -0.714007 -0.700139 0.000000 -0.832780 -0.553604 0.000000 -0.321466 -0.946921 0.000000 0.462042 -0.886858 0.000000 0.972955 -0.230994 0.000000 -0.616471 0.787378 0.000000 -0.753935 -0.656949 0.000000 -0.442648 -0.896695 0.000000 -0.998892 -0.047057 0.000000 0.693626 -0.720335 0.000000 0.717542 -0.696515 0.000000 0.751752 -0.659446 0.000000 0.919516 -0.393052 0.000000 0.491897 -0.870653 0.000000 0.936793 -0.349885 0.000000 0.129255 -0.991611 0.000000 -0.999999 -0.001401 0.000000 0.839034 -0.544078 0.000000 0.861341 -0.508028 0.000000 0.783380 -0.621543 0.000000 -0.667830 -0.744314 0.000000 -0.998700 -0.050967 0.000000 -0.069208 -0.997602 0.000000 -0.531869 -0.846827 0.000000 -0.985408 -0.170209 0.000000 -0.585823 -0.810439 0.000000 0.464298 -0.885679 0.000000 -0.791355 -0.611357 0.000000 0.578041 -0.816008 0.000000 0.672877 0.739754 0.000000 0.357010 -0.934101 0.000000 0.066125 -0.997811 0.000000 -0.148696 -0.988883 0.000000 0.416581 -0.909099 0.000000 0.714208 -0.699934 0.000000 0.957351 -0.288926 0.000000 0.499645 -0.866230 0.000000 -0.665532 -0.746369 0.000000 0.997369 -0.072497 0.000000 -0.484873 0.874585 0.000000 -0.536129 -0.844136 0.000000 -0.999981 -0.006233 0.000000 0.903090 -0.429452 0.000000 -0.671797 -0.740735 0.000000 -0.958961 0.283540 0.000000 0.931407 0.363980 0.000000 -0.999768 -0.021530 0.000000 0.292629 0.956226 0.000000 -0.440006 0.897995 0.000000 0.480303 0.877103 0.000000 0.392335 -0.919822 0.000000 0.967074 -0.254494 0.000000 -0.324665 -0.945829 0.000000 0.949100 -0.314976 0.000000 0.933451 -0.358705 0.000000 -0.924542 -0.381079 0.000000 -0.998444 -0.055769 0.000000 -0.628399 -0.777891 0.000000 -0.543516 -0.839399 0.000000 -0.373177 -0.927760 0.000000 -0.688553 0.725186 0.000000 0.697699 -0.716391 0.000000 0.490260 -0.871576 0.000000 -0.864354 0.502884 0.000000 0.079237 -0.996856 0.000000 0.993189 -0.116518 0.000000 -0.816747 -0.576996 0.000000 0.657021 -0.753872 0.000000 -0.913096 -0.407745 0.000000 -0.291792 -0.956482 0.000000 0.637376 -0.770553 0.000000 0.999530 -0.030655 0.000000 -0.987021 -0.160589 0.000000 0.577588 -0.816328 0.000000 0.666470 -0.745532 0.000000 -0.999484 -0.032116 0.000000 -0.380788 -0.924662 0.000000 -0.980108 -0.198464 0.000000 -0.895424 -0.445214 0.000000 -0.973504 -0.228670 0.000000 0.750864 -0.660457 0.000000 -0.440157 -0.897921 0.000000 0.997448 -0.071399 0.000000 0.944805 -0.327632 0.000000 -0.967477 -0.252960 0.000000 0.904353 -0.426785 0.000000 -0.678572 -0.734534 0.000000 -0.181546 -0.983383 0.000000 -0.983337 -0.181792 0.000000 -0.775363 -0.631516 0.000000 0.686814 -0.726833 0.000000 0.832825 -0.553536 0.000000 -0.934121 -0.356957 0.000000 -0.732416 -0.680857 0.000000 -0.991582 -0.129481 0.000000 -0.154660 -0.987968 0.000000 -0.469098 -0.883146 0.000000 0.370616 -0.928786 0.000000 0.004314 -0.999991 0.000000 0.746790 -0.665060 0.000000 0.269422 -0.963022 0.000000 0.583852 -0.811860 0.000000 -0.966358 -0.257200 0.000000 -0.996577 0.082668 0.000000 -0.811207 -0.584759 0.000000 0.969270 0.246000 0.000000 0.726856 0.686790 0.000000 0.041376 -0.999144 0.000000 0.437278 -0.899326 0.000000 0.990014 -0.140967 0.000000 0