<?xml version='1.0'?>
<VTKFile type='PolyData' version='0.1' byte_order='LittleEndian'><PolyData>
<Piece NumberOfPoints='9000' NumberOfVerts='0' NumberOfLines='0' NumberOfStrips='0' NumberOfPolys='3000'>
<Points>
<DataArray type='Float32' NumberOfComponents='3' format='ascii'>
10.720939 48.953898 0.000000 7.700232 49.552801 0.000000 8.850289 47.441644 0.000000 4.607386 49.951216 0.000000 6.466524 47.188436 0.000000 7.659800 49.545338 0.000000 8.870549 47.368338 0.000000 7.670356 49.451400 0.000000 6.529732 47.068582 0.000000 6.534779 47.076045 0.000000 4.632913 49.810383 0.000000 4.575701 47.233955 0.000000 1.642599 49.947402 0.000000 2.559855 47.079680 0.000000 4.616456 49.795637 0.000000 4.574186 47.218933 0.000000 4.616669 49.795609 0.000000 2.559862 47.079753 0.000000 2.525631 47.068365 0.000000 1.643226 49.947312 0.000000 -0.329321 47.674215 0.000000 -1.641989 49.944999 0.000000 -0.331724 47.671426 0.000000 1.641188 49.944964 0.000000 -0.336542 47.676477 0.000000 -1.645305 49.950886 0.000000 -2.910197 47.868381 0.000000 -4.622950 49.834216 0.000000 -2.963232 47.895262 0.000000 -1.647364 49.946115 0.000000 -2.957683 47.889077 0.000000 -4.633434 49.814173 0.000000 -4.556506 47.844893 0.000000 -7.688477 49.512083 0.000000 -6.088748 47.791631 0.000000 -4.631199 49.881419 0.000000 -4.556951 47.846245 0.000000 -4.642151 49.815184 0.000000 -6.120894 47.740340 0.000000 -6.100444 47.714109 0.000000 -7.685754 49.447856 0.000000 -8.456241 47.206718 0.000000 -10.716767 48.978277 0.000000 -8.429916 47.300988 0.000000 -7.691337 49.552843 0.000000 19.679827 46.334506 0.000000 16.764872 47.327682 0.000000 16.452511 45.659472 0.000000 16.707371 47.316470 0.000000 13.791045 48.305611 0.000000 16.295185 45.670080 0.000000 16.265619 45.558649 0.000000 13.738319 48.171977 0.000000 13.930300 45.104127 0.000000 8.858680 47.387441 0.000000 10.972274 45.584598 0.000000 10.724992 48.905029 0.000000 10.721790 48.950593 0.000000 10.998217 45.632467 0.000000 13.708814 48.201568 0.000000 13.905740 45.080814 0.000000 13.683372 48.146612 0.000000 10.970286 45.580145 0.000000 10.997481 45.557227 0.000000 8.868237 47.341573 0.000000 8.401775 45.762942 0.000000 6.521569 47.067423 0.000000 8.401682 45.762766 0.000000 8.865481 47.342188 0.000000 8.399836 45.760675 0.000000 6.521226 47.067498 0.000000 6.944485 44.942101 0.000000 2.549002 47.079600 0.000000 4.552810 44.908022 0.000000 4.564186 47.200826 0.000000 6.947461 44.927495 0.000000 6.520259 47.052002 0.000000 4.550846 44.923226 0.000000 4.564232 47.218744 0.000000 4.553326 44.925907 0.000000 6.522721 47.054660 0.000000 4.528907 44.924014 0.000000 2.529900 47.100612 0.000000 2.378874 44.968740 0.000000 2.375310 44.944253 0.000000 2.528225 47.076067 0.000000 0.309085 45.092015 0.000000 -0.334154 47.675289 0.000000 0.301290 45.085046 0.000000 2.520647 47.069288 0.000000 0.299864 45.087719 0.000000 -0.334940 47.678702 0.000000 -1.918562 46.136001 0.000000 -2.910702 47.868417 0.000000 -1.920888 46.133736 0.000000 -0.337152 47.676533 0.000000 -6.079566 47.718198 0.000000 -4.454166 45.919687 0.000000 -4.516388 47.834864 0.000000 -1.929967 46.149617 0.000000 -2.919817 47.884401 0.000000 -4.445017 45.898998 0.000000 -4.513048 47.831554 0.000000 -4.453869 45.916327 0.000000 -2.914738 47.890810 0.000000 -8.433057 47.194812 0.000000 -6.786846 46.103486 0.000000 -6.080370 47.716433 0.000000 -4.453200 45.918128 0.000000 -6.079061 47.716217 0.000000 -6.786715 46.103784 0.000000 -6.779440 46.098461 0.000000 -8.428916 47.184845 0.000000 -8.332370 45.346347 0.000000 -13.736443 48.213081 0.000000 -11.028665 45.738516 0.000000 -10.752180 48.973037 0.000000 -8.332689 45.347026 0.000000 -8.429371 47.185517 0.000000 -11.000844 45.641364 0.000000 -10.684005 48.912660 0.000000 -11.033238 45.685183 0.000000 -8.435360 47.184487 0.000000 -11.062858 45.726099 0.000000 -13.762267 48.209791 0.000000 -13.521512 45.793479 0.000000 -19.599073 46.312845 0.000000 -15.885347 45.338191 0.000000 -16.686927 47.314228 0.000000 -16.678056 47.320820 0.000000 -15.802518 45.376422 0.000000 -13.742835 48.252397 0.000000 -13.526641 45.791406 0.000000 -13.763232 48.208129 0.000000 -15.827135 45.335181 0.000000 22.320165 44.871207 0.000000 19.541559 46.198876 0.000000 20.360942 43.651652 0.000000 20.377067 43.562164 0.000000 19.545729 46.105512 0.000000 18.146336 43.636716 0.000000 16.256057 45.592141 0.000000 18.105456 43.624475 0.000000 19.515868 46.086986 0.000000 18.124545 43.604794 0.000000 16.248783 45.547320 0.000000 15.617303 43.181755 0.000000 13.917929 45.072947 0.000000 15.616682 43.183037 0.000000 16.249074 45.548358 0.000000 10.987084 45.574598 0.000000 13.040009 42.913793 0.000000 13.921587 45.069710 0.000000 15.619911 43.178411 0.000000 13.921393 45.068532 0.000000 13.041544 42.911901 0.000000 13.050438 42.900425 0.000000 10.990154 45.555520 0.000000 10.605014 42.484796 0.000000 6.942819 44.941208 0.000000 8.665391 43.891041 0.000000 8.399779 45.756876 0.000000 10.604733 42.482512 0.000000 10.989819 45.553244 0.000000 8.662624 43.893473 0.000000 8.398837 45.763136 0.000000 8.667305 43.897709 0.000000 10.994495 45.557428 0.000000 4.549321 44.923014 0.000000 6.584273 43.024802 0.000000 6.945811 44.927511 0.000000 8.672884 43.886177 0.000000 6.946124 44.929187 0.000000 6.584598 43.026512 0.000000 6.561217 43.029792 0.000000 4.528568 44.930884 0.000000 4.642646 42.384228 0.000000 0.311082 45.091868 0.000000 2.137211 42.707985 0.000000 2.377293 44.944121 0.000000 4.638968 42.376236 0.000000 4.528941 44.922959 0.000000 2.140519 42.731684 0.000000 2.379859 44.968762 0.000000 2.141394 42.732481 0.000000 4.529836 44.923781 0.000000 2.133558 42.712718 0.000000 0.307640 45.096369 0.000000 -0.438890 42.933230 0.000000 -4.443393 45.898271 0.000000 -2.227294 44.168351 0.000000 -1.928448 46.149790 0.000000 -0.443471 42.925210 0.000000 0.303567 45.088270 0.000000 -2.214523 44.155404 0.000000 -1.917575 46.135544 0.000000 -2.217188 44.154415 0.000000 0.300841 45.087257 0.000000 -2.227695 44.168665 0.000000 -4.443783 45.898576 0.000000 -4.493737 43.110651 0.000000 -8.328380 45.345601 0.000000 -6.611267 44.322289 0.000000 -6.775290 46.097376 0.000000 -4.493423 43.126893 0.000000 -4.443912 45.914844 0.000000 -6.610453 44.312348 0.000000 -6.774952 46.093637 0.000000 -6.610144 44.318626 0.000000 -4.440761 45.917120 0.000000 -10.993717 45.636088 0.000000 -8.832320 43.477244 0.000000 -8.325305 45.344071 0.000000 -6.607473 44.320014 0.000000 -8.325480 45.341793 0.000000 -8.832924 43.475089 0.000000 -8.831502 43.476448 0.000000 -10.993150 45.635041 0.000000 -11.151391 42.565942 0.000000 -15.781067 45.298960 0.000000 -13.414321 43.846182 0.000000 -13.477152 45.737578 0.000000 -11.152002 42.571074 0.000000 -10.992938 45.640132 0.000000 -13.372933 43.819264 0.000000 -13.471833 45.730673 0.000000 -13.385720 43.840195 0.000000 -11.012992 45.670524 0.000000 -13.371961 43.820193 0.000000 -15.752759 45.249826 0.000000 -15.576934 42.457079 0.000000 -19.501381 46.095510 0.000000 -18.039110 43.371522 0.000000 -15.751480 45.270918 0.000000 -15.583144 42.461949 0.000000 -15.755290 45.254925 0.000000 -18.048919 43.362778 0.000000 -18.057069 43.373580 0.000000 -19.509095 46.103042 0.000000 -20.312102 43.562986 0.000000 -22.341796 44.877285 0.000000 -20.312385 43.671636 0.000000 -19.576207 46.231860 0.000000 27.747796 41.822416 0.000000 25.128727 43.442243 0.000000 25.538525 40.843846 0.000000 25.512209 40.845922 0.000000 25.121766 43.447297 0.000000 22.398290 41.493384 0.000000 20.375447 43.574754 0.000000 22.315758 41.389290 0.000000 22.319117 44.818947 0.000000 25.053652 43.412351 0.000000 22.352103 44.890522 0.000000 22.328379 41.460945 0.000000 18.118484 43.616141 0.000000 19.548083 41.906830 0.000000 20.349812 43.562792 0.000000 22.313188 41.383936 0.000000 20.360585 43.558426 0.000000 19.565584 41.899236 0.000000 15.618838 43.181060 0.000000 17.468428 41.365141 0.000000 18.125905 43.605041 0.000000 19.555866 41.897288 0.000000 18.126390 43.606690 0.000000 17.468920 41.366767 0.000000 17.471159 41.362470 0.000000 15.621539 43.178314 0.000000 14.907293 40.580410 0.000000 13.043462 42.909465 0.000000 14.907324 40.580526 0.000000 15.621572 43.178428 0.000000 14.914142 40.572089 0.000000 13.047446 42.898751 0.000000 12.227490 40.551069 0.000000 10.602369 42.483436 0.000000 12.227854 40.552076 0.000000 13.047681 42.899798 0.000000 12.232309 40.546824 0.000000 10.606224 42.477429 0.000000 10.217711 40.404649 0.000000 6.572960 43.021773 0.000000 8.476143 41.569038 0.000000 8.661582 43.880598 0.000000 10.217378 40.402859 0.000000 10.605890 42.475638 0.000000 8.473980 41.573983 0.000000 8.665850 43.886406 0.000000 8.476796 41.575175 0.000000 10.608737 42.476838 0.000000 8.463080 41.575896 0.000000 6.561279 43.030748 0.000000 6.149794 40.465097 0.000000 4.642434 42.384157 0.000000 6.149634 40.464049 0.000000 6.561007 43.029722 0.000000 6.149089 40.464780 0.000000 4.641477 42.384446 0.000000 3.821985 40.754059 0.000000 2.138829 42.731931 0.000000 3.814696 40.747714 0.000000 4.637253 42.376479 0.000000 3.815005 40.747351 0.000000 2.139129 42.731577 0.000000 1.971516 39.861222 0.000000 1.966684 39.845242 0.000000 2.136032 42.715269 0.000000 -0.108260 40.888992 0.000000 -0.439418 42.933280 0.000000 -0.111480 40.886371 0.000000 2.132971 42.712772 0.000000 -4.486555 43.112956 0.000000 -2.329429 41.810116 0.000000 -2.220868 44.171887 0.000000 -0.113118 40.884233 0.000000 -0.439969 42.931198 0.000000 -2.321759 41.800392 0.000000 -2.218809 44.158406 0.000000 -2.330054 41.796927 0.000000 -0.448163 42.927500 0.000000 -2.332479 41.811967 0.000000 -4.489653 43.114694 0.000000 -4.559589 40.559266 0.000000 -8.833612 43.470601 0.000000 -6.783458 41.952053 0.000000 -6.609492 44.319260 0.000000 -6.610019 44.311485 0.000000 -6.784038 41.944278 0.000000 -4.492725 43.126533 0.000000 -4.562333 40.570675 0.000000 -4.493509 43.126146 0.000000 -6.784437 41.942841 0.000000 -11.150943 42.562063 0.000000 -9.132096 41.029429 0.000000 -8.832295 43.475876 0.000000 -6.782717 41.951522 0.000000 -
[...]
<PointData Vectors='Velocity Force Displacement'>
<DataArray type='Float32' Name='Velocity' NumberOfComponents='3' format='ascii'>
1.035133 5.026935 0.000000 1.309560 6.411112 0.000000 0.342170 5.884117 0.000000 0.000332 3.241010 0.000000 -0.424682 5.680282 0.000000 -0.527192 5.826032 0.000000 1.220358 2.971906 0.000000 0.356791 2.476388 0.000000 1.317432 2.022390 0.000000 1.312637 2.025206 0.000000 -0.112826 1.047934 0.000000 1.224405 1.017501 0.000000 -0.145740 -1.147477 0.000000 0.866003 -0.897365 0.000000 -0.027297 -0.223505 0.000000 0.926368 -0.106868 0.000000 0.089039 -0.091745 0.000000 0.972500 -0.758589 0.000000 -0.066121 -1.141915 0.000000 -0.137892 -1.015419 0.000000 -0.057808 -1.112736 0.000000 -0.195593 -1.003469 0.000000 -0.052364 -1.105238 0.000000 -0.138918 -1.012029 0.000000 -0.250001 -1.316717 0.000000 -0.074258 -1.172682 0.000000 -0.216963 -1.119467 0.000000 -0.208028 2.058212 0.000000 -2.363931 0.220987 0.000000 -0.119442 -1.151575 0.000000 -2.392965 0.194513 0.000000 -0.746952 1.597328 0.000000 -2.427006 1.539387 0.000000 -1.018702 4.667878 0.000000 -1.231139 4.470347 0.000000 -0.973097 4.290372 0.000000 -2.457863 1.524132 0.000000 -0.918270 1.590768 0.000000 -2.540686 2.747043 0.000000 -1.616861 1.147203 0.000000 -0.520228 2.149963 0.000000 -1.937812 2.637305 0.000000 -1.019456 6.100634 0.000000 -0.888057 6.279786 0.000000 -1.064467 6.337646 0.000000 8.385638 12.673193 0.000000 6.615639 7.478654 0.000000 9.588451 6.921947 0.000000 3.906906 7.010324 0.000000 4.742353 9.473593 0.000000 2.516288 7.358461 0.000000 1.300982 2.436434 0.000000 2.579232 3.672621 0.000000 1.078654 3.578708 0.000000 1.152589 3.817635 0.000000 0.540374 3.091283 0.000000 1.695890 3.164538 0.000000 1.594614 4.797635 0.000000 1.294102 4.781924 0.000000 1.522112 4.523728 0.000000 0.505105 2.708270 0.000000 0.343034 2.696416 0.000000 0.479372 2.553918 0.000000 1.099826 1.929394 0.000000 1.143569 2.003873 0.000000 1.102683 1.996061 0.000000 0.951158 1.896155 0.000000 0.997771 1.963494 0.000000 0.941175 1.980316 0.000000 1.218725 2.039161 0.000000 1.040866 1.782743 0.000000 1.325875 1.840748 0.000000 0.973672 -0.767916 0.000000 1.495602 -0.317288 0.000000 0.959007 -0.312615 0.000000 1.579609 0.572528 0.000000 1.000749 0.455385 0.000000 1.571761 -0.075160 0.000000 0.952114 -0.070889 0.000000 1.571963 -0.073458 0.000000 0.999197 0.455305 0.000000 0.104412 0.303092 0.000000 0.030428 0.259400 0.000000 0.108328 0.233032 0.000000 -0.031625 -1.218700 0.000000 -0.065981 -1.149208 0.000000 -0.015538 -1.259314 0.000000 -0.055437 -1.115783 0.000000 -0.012843 -1.255841 0.000000 -0.071042 -1.156300 0.000000 -0.198494 -1.217798 0.000000 -0.048361 -1.114150 0.000000 -0.125982 -1.029172 0.000000 -0.218669 -1.117185 0.000000 -0.339398 -1.225271 0.000000 -0.245526 -1.313820 0.000000 -1.010766 1.727054 0.000000 -1.616368 1.179740 0.000000 -0.971480 1.200694 0.000000 -0.975883 -0.190712 0.000000 -0.804590 -0.081432 0.000000 -0.995084 0.067053 0.000000 -0.682637 1.073548 0.000000 -1.747975 1.035720 0.000000 -0.633036 0.213755 0.000000 -1.054880 2.763684 0.000000 -1.586998 1.961001 0.000000 -0.800473 1.616564 0.000000 -1.753453 1.030150 0.000000 -1.131730 1.592599 0.000000 -1.689500 1.836699 0.000000 -0.782354 1.451446 0.000000 -0.597144 1.732655 0.000000 -0.910577 1.716195 0.000000 -2.525852 5.485990 0.000000 -2.287089 5.747255 0.000000 -2.599177 5.773932 0.000000 -0.987131 1.713476 0.000000 -0.530992 1.737465 0.000000 -0.914091 2.375470 0.000000 0.070705 3.313067 0.000000 -2.504203 3.591662 0.000000 -1.308027 1.519067 0.000000 -3.547638 5.301130 0.000000 -3.317466 5.551225 0.000000 -3.541382 5.528926 0.000000 -4.961500 11.620857 0.000000 -6.556319 5.543607 0.000000 -3.322720 6.855396 0.000000 -2.912928 7.425725 0.000000 -3.123658 7.330823 0.000000 -2.811993 7.107521 0.000000 -3.623226 5.558284 0.000000 -3.499307 5.570409 0.000000 -3.646621 5.676273 0.000000 1.460195 4.957904 0.000000 2.312587 6.741867 0.000000 0.677190 6.215784 0.000000 1.299923 2.612686 0.000000 2.274718 2.931318 0.000000 1.328492 3.467665 0.000000 1.263851 3.724856 0.000000 0.407811 2.932154 0.000000 1.474788 2.334878 0.000000 0.674920 2.575106 0.000000 0.685170 2.590834 0.000000 0.657550 2.605188 0.000000 0.657878 2.716971 0.000000 0.556808 2.627263 0.000000 0.685099 2.590481 0.000000 0.706866 2.718473 0.000000 0.693395 2.722192 0.000000 0.702055 2.721419 0.000000 0.619712 2.462612 0.000000 0.717118 2.550162 0.000000 0.605992 2.595497 0.000000 1.354449 1.857847 0.000000 1.188200 1.707291 0.000000 1.367415 1.700569 0.000000 1.321139 1.842999 0.000000 1.152740 1.556980 0.000000 1.440585 1.607013 0.000000 1.368068 1.698072 0.000000 1.154329 1.732712 0.000000 1.269266 1.571716 0.000000 1.393839 1.866239 0.000000 1.342879 1.841312 0.000000 1.344556 1.790762 0.000000 1.492669 -0.265105 0.000000 2.164677 0.456264 0.000000 1.498876 0.579894 0.000000 1.868223 1.178793 0.000000 1.499691 0.585209 0.000000 2.163127 0.453218 0.000000 0.388682 0.945010 0.000000 0.212019 0.775205 0.000000 0.456313 0.760686 0.000000 -0.014086 -1.261016 0.000000 0.038086 -1.309726 0.000000 -0.037015 -1.218935 0.000000 0.309449 0.410960 0.000000 0.233836 0.408461 0.000000 0.286911 0.342802 0.000000 0.108931 0.236318 0.000000 0.169107 0.215015 0.000000 0.104301 0.305838 0.000000 0.019584 -1.313657 0.000000 -0.011571 -1.259324 0.000000 0.041339 -1.337635 0.000000 -0.969616 -0.154427 0.000000 -1.021647 -0.221969 0.000000 -0.976750 -0.192740 0.000000 -0.329678 -1.185324 0.000000 -0.208384 -1.209412 0.000000 -0.264197 -1.084082 0.000000 -0.112296 -1.032300 0.000000 -0.259370 -1.081524 0.000000 -0.210536 -1.211547 0.000000 -1.020765 -0.206725 0.000000 -0.983307 -0.183444 0.000000 -1.108754 -0.172589 0.000000 -1.019696 2.013934 0.000000 -1.356823 1.455657 0.000000 -0.777837 1.508549 0.000000 -1.097688 0.932150 0.000000 -0.895265 0.938372 0.000000 -1.007102 1.097343 0.000000 -0.766353 1.336243 0.000000 -1.004948 1.311755 0.000000 -0.791315 1.015803 0.000000 -1.046258 1.765674 0.000000 -0.939990 1.871663 0.000000 -1.032710 1.892016 0.000000 -1.035543 1.258288 0.000000 -0.965366 1.362875 0.000000 -1.071029 1.394322 0.000000 -0.942462 1.869479 0.000000 -1.092777 1.725004 0.000000 -0.872184 1.714444 0.000000 -1.624676 3.820321 0.000000 -1.914260 3.348552 0.000000 -1.537245 3.361077 0.000000 -1.294846 2.131305 0.000000 -1.096340 2.121416 0.000000 -1.214156 2.274756 0.000000 -1.237814 2.524781 0.000000 -0.965441 2.537187 0.000000 -1.229147 2.879041 0.000000 -0.248490 2.335284 0.000000 -0.189502 2.433531 0.000000 -0.304751 2.426283 0.000000 -0.383561 2.776294 0.000000 -0.297363 2.822818 0.000000 -0.357372 2.895415 0.000000 -0.574921 2.409276 0.000000 -0.546504 2.411078 0.000000 -0.565801 2.434417 0.000000 -0.963985 2.639740 0.000000 -0.511290 2.880581 0.000000 -0.932595 3.013790 0.000000 -2.397542 5.223265 0.000000 -1.108022 7.393785 0.000000 -3.846275 8.181194 0.000000 6.184714 6.694675 0.000000 6.101500 6.560128 0.000000 6.234985 6.581180 0.000000 4.768363 6.558640 0.000000 5.723081 6.701939 0.000000 5.005980 7.701467 0.000000 1.236977 2.995780 0.000000 1.083728 2.859721 0.000000 1.324222 2.859486 0.000000 2.339125 4.989565 0.000000 2.887067 5.991010 0.000000 1.615749 5.999799 0.000000 0.727826 2.494497 0.000000 0.955669 2.687912 0.000000 0.782381 2.774069 0.000000 1.044329 2.899835 0.000000 0.616888 2.525824 0.000000 0.936865 2.484002 0.000000 0.779041 2.491961 0.000000 0.826936 2.547626 0.000000 0.743898 2.569978 0.000000 0.818408 2.559634 0.000000 0.782803 2.488656 0.000000 0.858202 2.401959 0.000000 0.962726 2.449283 0.000000 0.886624 2.421336 0.000000 0.963322 2.406994 0.000000 0.934623 2.421264 0.000000 0.933988 2.420810 0.000000 0.927692 2.419899 0.000000 1.416903 1.831160 0.000000 1.341070 1.760157 0.000000 1.431093 1.739006 0.000000 1.366939 1.694181 0.000000 1.434517 1.738037 0.000000 1.340586 1.775494 0.000000 1.848352 1.250642 0.000000 1.794154 1.170614 0.000000 1.864097 1.146807 0.000000 1.400574 0.143984 0.000000 1.652767 0.461569 0.000000 1.253920 0.498553 0.000000 1.864279 1.150394 0.000000 1.794360 1.172097 0.000000 1.819369 1.110937 0.000000 1.763997 1.124453 0.000000 1.820020 1.112974 0.000000 1.794247 1.171821 0.000000 0.569165 1.011327 0.000000 0.457186 0.865960 0.000000 0.664931 0.842982 0.000000 0.459946 0.762998 0.000000 0.667038 0.868780 0.000000 0.385917 0.945898 0.000000 0.670471 0.867481 0.000000 0.386317 0.626039 0.000000 0.642276 0.495090 0.000000 0.280446 0.331768 0.000000 0.376340 0.391472 0.000000 0.310442 0.419172 0.000000 0.369371 0.404499 0.000000 0.282221 0.333014 0.000000 0.405399 0.313768 0.000000 0.016522 -1.427578 0.000000 0.037886 -1.313336 0.000000 0.036787 -1.372241 0.000000 0.030847 -1.335592 0.000000 0.045478 -1.367906 0.000000 0.029257 -1.317308 0.000000 -0.914090 -0.435781 0.000000 -0.763388 -0.226447 0.000000 -1.020962 -0.203275 0.000000 0.032672 -1.368238 0.000000 0.047031 -1.321003 0.000000 0.039655 -1.263611 0.000000 -0.647697 -0.842383 0.000000 -0.777289 -0.941179 0.000000 -0.740407 -0.981439 0.000000 -0.935735 -0.123567 0.000000 -1.060488 -0.337843 0.000000 -0.833606 -0.336478 0.000000 -1.128368 1.257125 0.000000 -1.123319 1.241668 0.000000 -1.118692 1.247009 0.000000 -1.149420 0.821475 0.000000 -1.170001 0.808649 0.000000 -1.090611 0.913735 0.000000 -1.007440 0.858012 0.000000 -1.195200 0.861500 0.000000 -1.109138 0.685417 0.000000 -1.089347 1.486726 0.000000 -1.027472 1.594514 0.000000 -1.196200 1.618752 0.000000 -1.105342 1.254674 0.000000 -1.246896 1.093724 0.000000 -1.093805 1.070776 0.000000 -1.000949 1.566017 0.000000 -1.077289 1.465735 0.000000 -0.957001 1.459375 0.000000 -1.007636 2.390057 0.000000 -1.126578 2.144708 0.000000 -0.869938 2.140843 0.000000 -0.844863 2.111262 0.000000 -1.126452 2.094462 0.000000 -0.973899 1.894208 0.000000 -0.861519 1.744501 0.000000 -1.081868 1.727416 0.000000 -0.924610 1.652754 0.000000 -0.772372 1.926999 0.000000 -0.739822 2.066257 0.000000 -0.892158 2.054856 0.000000 -0.874386 2.234574 0.000000 -0.883013 2.214840 0.000000 -0.914453 2.225185 0.000000 -0.630611 2.340912 0.000000 -0.531308 2.360056 0.000000 -0.592528 2.446156 0.000000 -0.638392 2.365879 0.000000 -0.619579 2.369690 0.000000 -0.632086 2.381579 0.000000 -0.675016 2.386454 0.000000 -0.765802 2.347271 0.000000 -0.684419 2.269347 0.000000 -2.668941 4.646244 0.000000 -2.706681 4.577887 0.000000 -2.633976 4.583457 0.000000 -1.166486 3.280254 0.000000 -1.352002 3.199310 0.000000 -1.155285 3.006998 0.000000 -1.949203 3.744808 0.000000 -1.216132 3.791912 0.000000 -1.655297 4.215718 0.000000 -1.087040 2.807298 0.000000 -0.929851 3.083538 0.000000 -1.214016 3.091883 0.000000 -2.908189 4.920564 0.000000 -2.953552 4.835269 0.000000 -2.852628 4.833004 0.000000 8.248736 7.053960 0.000000 6.762945 5.138815 0.000000 7.993491 5.073237 0.000000 2.318691 4.340643 0.000000 2.627973 4.731074 0.000000 2.152552 4.712301 0.000000 3.818793 5.075849 0.000000 3.413499 5.062036 0.000000 3.562883 4.715422 0.000000 2.383523 4.389733 0.000000 2.426043 4.386523 0.000000 2.397890 4.452374 0.000000 2.126544 4.277575 0.000000 2.129218 4.269307 0.000000 2.190446 4.203202 0.000000 1.966291 4.470824 0.000000 1.837252 4.376410 0.000000 1.941406 4.330582 0.000000 1.247321 3.409217 0.000000 0.367690 2.789147 0.000000 1.158030 2.655372 0.000000 0.927603 2.493204 0.000000 0.940759 2.514478 0.000000 0.889674 2.507047 0.000000 1.108268 2.577446 0.000000 0.702940 2.657906 0.000000 1.008013 2.302184 0.000000 0.956629 2.429750 0.000000 1.225822 2.502023 0.000000 1.075223 2.841862 0.000000 1.032316 2.232088 0.000000 1.138895 2.407042 0.000000 1.001237 2.462528 0.000000 0.999555 2.420749 0.000000 0.970010 2.443314 0.000000 0.996872 2.450095 0.000000 0.673555 1.699143 0.000000 0.566534 1.439061 0.000000 0.824261 1.508463 0.000000 0.830334 1.401273 0.000000 0.534762 1.386119 0.000000 0.739520 1.224236 0.000000 0.577607 1.107780 0.000000 0.778569 1.188129 0.000000 0.576326 1.369763 0.000000 0.732643 1.202229 0.000000 0.617932 1.138783 0.000000 0.741974 1.082164 0.000000 0.614983 1.049993 0.000000 0.746833 1.084001 0.000000 0.617504 1.136683 0.000000 0.518437 0.780783 0.000000 0.593698 0.946768 0.000000 0.440254 0.935725 0.000000 0.739960 1.091826 0.000000 0.620096 1.034118 0.000000 0.701849 0.918561 0.000000 0.849920 0.985982 0.000000 0.904255 0.991130 0.000000 0.876717 1.027639 0.000000 0.635955 0.743694 0.000000 0.603441 0.737240 0.000000 0.656373 0.720670 0.000000 0.419213 0.286309 0.000000 0.540993 0.451812 0.000000 0.367252 0.405035 0.000000 0.666883 0.719623 0.000000 0.437030 0.676702 0.000000 0.667206 0.464777 0.000000 0.377925 0.417064 0.000000 0.667742 0.463715 0.000000 0.432251 0.678067 0.000000 0.333493 0.587694 0.000000 0.289162 0.557754 0.000000 0.349420 0.561598 0.000000 -0.153495 -1.525974 0.000000 0.012592 -1.433343 0.000000 -0.043744 -1.422759 0.000000 0.040721 -1.372612 0.000000 -0.035923 -1.416470 0.000000 0.008803 -1.430089 0.000000 -0.786160 -0.308609 0.000000 -0.659252 -0.067422 0.000000 -0.887493 -0.099495 0.000000 -0.042136 -1.415619 0.000000 0.027370 -1.334467 0.000000 -0.008888 -1.375389 0.000000 -0.619343 -1.012825 0.000000 -0.655032 -1.051107 0.000000 -0.641499 -1.074727 0.000000 -0.905988 0.078553 0.000000 -1.053666 -0.161801 0.000000 -0.793506 -0.169733 0.000000 -1.243265 0.986001 0.000000 -1.109782 1.155000 0.000000 -1.285826 1.182680 0.000000 -0.813113 0.859491 0.000000 -1.016770 0.859906 0.000000 -0.897597 0.646773 0.000000 -1.109418 0.681922 0.000000 -0.917886 0.641241 0.000000 -1.008536 0.856795 0.000000 -0.977054 1.427625 0.000000 -0.908189 1.512620 0.000000 -1.051827 1.548988 0.000000 -1.108269 1.148904 0.000000 -1.245981 0.987420 0.000000 -1.073616 0.918177 0.000000 -0.910370 1.484069 0.000000 -0.975599 1.404581 0.000000 -0.897157 1.407271 0.000000 -0.687265 1.878897 0.000000 -0.726506 1.857077 0.000000 -0.781220 1.905979 0.000000 -0.798565 1.579985 0.000000 -0.819645 1.602589 0.000000 -0.786301 1.559186 0.000000 -0.922175 1.448665 0.000000 -0.959040 1.442276 0.000000 -0.922341 1.430045 0.000000 -0.746097 1.802770 0.000000 -0.820170 1.797089 0.000000 -0.775518 1.858062 0.000000 -0.697136 2.130767 0.000000 -0.684928 2.105405 0.000000 -0.708357 2.125354 0.000000 -0.581251 2.148248 0.000000 -0.758352 2.170718 0.000000 -0.697234 1.989304 0.000000 -0.678838 2.909606 0.000000 -1.015880 2.519139 0.000000 -0.647601 2.500561 0.000000 -0.688520 2.101401 0.000000 -0.471130 2.128696 0.000000 -0.622836 2.339279 0.000000 -0.664214 2.308824 0.000000 -0.617550 2.321049 0.000000 -0.638779 2.366841 0.000000 -0.966739 2.856943 0.000000 -1.013269 2.792082 0.000000 -0.930385 2.769752 0.000000 -1.029331 2.262849 0.000000 -0.708729 2.553278 0.000000 -1.099970 2.652925 0.000000 -1.307460 2.456669 0.000000 -0.923997 2.944249 0.000000 -1.477587 3.023225 0.000000 -3.091261 5.846402 0.000000 -3.162094 5.677697 0.000000 -2.982465 5.687727 0.000000 -1.725594 3.994063 0.000000 -0.839304 3.865701 0.000000 -1.259037 4.715771 0.000000 -2.545216 4.815891 0.000000 -2.674903 4.828854 0.000000 -2.634387 4.680421 0.000000 -3.864230 4.906210 0.000000 -4.237196 5.373629 0.000000 -4.243539 4.798971 0.000000 -3.683720 4.482963 0.000000 -3.359488 5.439527 0.000000 -4.096036 5.233754 0.000000 4.484520 6.264816 0.000000 3.085102 4.690903 0.000000 4.591310 4.366539 0.000000 0.956225 4.057445 0.000000 1.281119 4.348012 0.000000 1.030845 4.394117 0.000000 2.914232 4.346290 0.000000 2.973951 4.335204 0.000000 2.926958 4.433873 0.000000 2.500220 4.739463 0.000000 2.278317 4.789671 0.000000 2.414519 4.504132 0.000000 0.914106 3.924580 0.000000 0.997727 3.865453 0.000000 0.964916 3.885512 0.000000 1.109215 4.455431 0.000000 0.672501 4.076585 0.000000 1.156582 3.899134 0.000000 0.907464 3.075894 0.000000 1.387819 3.668146 0.000000 0.796749 3.645549 0.000000 0.392341 2.407168 0.000000 0.527930 2.416557 0.000000 0.425129 2.523995 0.000000 0.577232 2.588984 0.000000 0.460206 2.552963 0.000000 0.555135 2.441361 0.000000 0.685054 1.784847 0.000000 0.804454 1.821774 0.000000 0.730712 1.904008 0.000000 0.590789 1.853144 0.000000 0.743073 1.912780 0.000000 0.655520 2.006961 0.000000 0.782080 1.476786 0.000000 0.839373 1.565961 0.000000 0.739847 1.532768 0.000000 0.755346 1.877240 0.000000 0.444863 1.753483 0.000000 0.773049 1.536626 0.000000 0.584574 1.724748 0.000000 0.744987 1.803628 0.000000 0.557207 1.926797 0.000000 0.776564 1.476123 0.000000 0.795133 1.507937 0.000000 0.756805 1.502744 0.000000 0.744061 1.090204 0.000000 0.768419 1.111320 0.000000 0.738915 1.112269 0.000000 0.979545 1.391684 0.000000 0.799657 1.356593 0.000000 0.980694 1.188791 0.000000 0.758830 1.231899 0.000000 0.958354 1.213763 0.000000 0.839194 1.330737 0.000000 0.760040 1.115053 0.000000 0.740625 1.087226 0.000000 0.746692 1.099001 0.000000 0.660496 0.715947 0.000000 0.741763 0.827951 0.000000 0.587493 0.814397 0.000000 0.737411 1.089804 0.000000 0.647983 1.092451 0.000000 0.722116 0.992000 0.000000 0.572099 0.967974 0.000000 0.720860 0.989989 0.000000 0.617459 1.107555 0.000000 0.660942 0.734246 0.000000 0.662635 0.721397 0.000000 0.681883 0.691857 0.000000 0.546970 0.480080 0.000000 0.569253 0.505245 0.000000 0.557856 0.500992 0.000000 0.450951 0.700708 0.000000 0.399335 0.726491 0.000000 0.467887 0.678115 0.000000 0.358164 0.539493 0.000000 0.429355 0.557351 0.000000 0.345236 0.592893 0.000000 0.623326 0.864140 0.000000 0.308472 0.561441 0.000000 0.600333 0.646665 0.000000 -0.020690 -1.361850 0.000000 -0.198182 -1.420902 0.000000 -0.039067 -1.418295 0.000000 -0.305029 -1.578000 0.000000 -0.157303 -1.543949 0.000000 -0.196077 -1.420547 0.000000 -0.033782 -1.414487 0.000000 -0.201471 -1.421055 0.000000 -0.147780 -1.540790 0.000000 -0.388232 -1.127387 0.000000 -0.237552 -0.988485 0.000000 -0.374421 -0.951255 0.000000 -0.806278 -0.170989 0.000000 -0.691306 0.003916 0.000000 -0.883541 0.088795 0.000000 -0.691846 0.002315 0.000000 -0.801115 -0.174948 0.000000 -0.580960 -0.184844 0.000000 -0.724506 0.741179 0.000000 -0.811026 0.728833 0.000000 -0.718134 0.661104 0.000000 -0.898730 0.648886 0.000000 -0.664817 0.705645 0.000000 -0.813329 0.861172 0.000000 -0.880543 1.042543 0.000000 -1.144458 0.975719 0.000000 -0.947271 0.812575 0.000000 -1.032277 0.919652 0.000000 -0.907422 1.011314 0.000000 -1.044276 1.118337 0.000000 -0.928287 1.317335 0.000000 -0.849479 1.414309 0.000000 -0.929844 1.400153 0.000000 -0.886305 1.344746 0.000000 -0.825891 1.355056 0.000000 -0.893705 1.397263 0.000000 -1.086821 1.049567 0.000000 -1.120912 1.027366 0.000000 -1.073633 0.977112 0.000000 -0.843645 1.901055 0.000000 -0.872041 1.891636 0.000000 -0.845595 1.889520 0.000000 -0.848847 1.414280 0.000000 -0.930123 1.318689 0.000000 -0.808111 1.291981 0.000000 -0.824392 2.008037 0.000000 -0.895154 1.943946 0.000000 -0.820460 1.905981 0.000000 -0.444931 2.291400 0.000000 -0.643466 2.139267 0.000000 -0.473518 2.076441 0.000000 -0.684652 2.004469 0.000000 -0.724748 2.041696 0.000000 -0.692702 2.003356 0.000000 -0.811608 1.896899 0.000000 -0.593728 1.805397 0.000000 -0.662497 1.920678 0.000000 -0.740754 2.606256 0.000000 -0.871131 2.478135 0.000000 -0.689021 2.418619 0.000000 -0.642799 2.139135 0.000000 -0.446693 2.293862 0.000000 -0.691173 2.370210 0.000000 -0.799868 2.442664 0.000000 -0.713441 2.528160 0.000000 -0.826151 2.568941 0.000000 -0.719498 3.183557 0.000000 -1.028121 2.835236 0.000000 -0.479553 2.686526 0.000000 -1.110519 2.716546 0.000000 -0.681339 3.042241 0.000000 -1.088796 3.098441 0.000000 -2.294846 4.358391 0.000000 -2.030488 4.802956 0.000000 -2.554743 4.819354 0.000000 -1.117806 3.324386 0.000000 -1.294762 3.330995 0.000000 -1.225176 3.156422 0.000000 -0.986221 3.263560 0.000000 -0.750478 3.205360 0.000000 -0.859245 3.478556 0.000000 -1.842239 5.348366 0.000000 -2.399358 4.412594 0.000000 -1.448390 4.233996 0.000000 -2.466072 4.310355 0.000000 -2.078639 4.822557 0.000000 -2.462289 4.895777 0.000000 -5.756775 4.419283 0.000000 -5.744562 4.405892 0.000000 -5.741508 4.421998 0.000000 -4.247014 4.999893 0.000000 -4.192643 5.071247 0.000000 -4.264362 5.058738 0.000000 6.897289 10.381592 0.0