<?xml version='1.0'?>
<VTKFile type='PolyData' version='0.1' byte_order='LittleEndian'><PolyData>
<Piece NumberOfPoints='9000' NumberOfVerts='0' NumberOfLines='0' NumberOfStrips='0' NumberOfPolys='3000'>
<Points>
<DataArray type='Float32' NumberOfComponents='3' format='ascii'>
10.715759 48.928762 0.000000 7.693687 49.520743 0.000000 8.848579 47.412226 0.000000 4.608383 49.915154 0.000000 6.473282 47.155456 0.000000 7.661750 49.514769 0.000000 8.863007 47.352836 0.000000 7.667614 49.438658 0.000000 6.521474 47.058500 0.000000 6.526989 47.065861 0.000000 4.632902 49.805589 0.000000 4.568368 47.229336 0.000000 1.642846 49.952572 0.000000 2.553640 47.082894 0.000000 4.616212 49.794480 0.000000 4.568177 47.217959 0.000000 4.616155 49.794392 0.000000 2.553606 47.082874 0.000000 2.526100 47.073833 0.000000 1.643572 49.952350 0.000000 -0.328902 47.679510 0.000000 -1.641436 49.950028 0.000000 -0.331307 47.676719 0.000000 1.641532 49.949979 0.000000 -0.335356 47.683034 0.000000 -1.644940 49.956267 0.000000 -2.909308 47.874139 0.000000 -4.621695 49.824266 0.000000 -2.951811 47.894039 0.000000 -1.646769 49.951688 0.000000 -2.946190 47.887919 0.000000 -4.629785 49.806142 0.000000 -4.544805 47.837194 0.000000 -7.683383 49.488743 0.000000 -6.082593 47.769280 0.000000 -4.626334 49.859967 0.000000 -4.544812 47.838615 0.000000 -4.637617 49.807213 0.000000 -6.108329 47.726667 0.000000 -6.092367 47.708375 0.000000 -7.683152 49.437100 0.000000 -8.446547 47.193536 0.000000 -10.711670 48.947774 0.000000 -8.425476 47.269589 0.000000 -7.686015 49.521155 0.000000 19.637818 46.271145 0.000000 16.731828 47.290254 0.000000 16.404615 45.624893 0.000000 16.687827 47.281416 0.000000 13.767350 48.258232 0.000000 16.282597 45.633301 0.000000 16.259110 45.546469 0.000000 13.725425 48.153609 0.000000 13.924909 45.086237 0.000000 8.853761 47.368270 0.000000 10.971263 45.570004 0.000000 10.716802 48.889886 0.000000 10.714561 48.926500 0.000000 10.992082 45.608468 0.000000 13.701832 48.178456 0.000000 13.903387 45.067346 0.000000 13.681854 48.133206 0.000000 10.968084 45.567494 0.000000 10.992382 45.548189 0.000000 8.862675 47.331968 0.000000 8.396654 45.753203 0.000000 6.516731 47.058031 0.000000 8.396601 45.753046 0.000000 8.860679 47.332389 0.000000 8.394232 45.750782 0.000000 6.516208 47.058426 0.000000 6.938519 44.932867 0.000000 2.544373 47.082774 0.000000 4.545715 44.909332 0.000000 4.559778 47.201884 0.000000 6.940170 44.924838 0.000000 6.515666 47.049849 0.000000 4.543576 44.923628 0.000000 4.559868 47.218926 0.000000 4.546034 44.926273 0.000000 6.518155 47.052529 0.000000 4.528214 44.921629 0.000000 2.529794 47.098769 0.000000 2.378277 44.966713 0.000000 2.375572 44.949969 0.000000 2.528621 47.081521 0.000000 0.309289 45.097639 0.000000 -0.333734 47.680588 0.000000 0.301661 45.090809 0.000000 2.521123 47.074818 0.000000 0.300759 45.093830 0.000000 -0.334646 47.684442 0.000000 -1.917889 46.141569 0.000000 -2.909677 47.874174 0.000000 -1.919239 46.140238 0.000000 -0.336010 47.683099 0.000000 -6.074524 47.709593 0.000000 -4.446129 45.913821 0.000000 -4.511543 47.828877 0.000000 -1.925953 46.150801 0.000000 -2.916079 47.885474 0.000000 -4.440882 45.899977 0.000000 -4.511085 47.825414 0.000000 -4.446025 45.910456 0.000000 -2.912966 47.889448 0.000000 -8.427997 47.181198 0.000000 -6.779299 46.093633 0.000000 -6.076506 47.708188 0.000000 -4.444976 45.912559 0.000000 -6.073474 47.708255 0.000000 -6.778766 46.094788 0.000000 -6.775534 46.091191 0.000000 -8.425933 47.176178 0.000000 -8.327806 45.337767 0.000000 -13.723813 48.185651 0.000000 -11.017229 45.709780 0.000000 -10.739185 48.944168 0.000000 -8.327830 45.338445 0.000000 -8.426722 47.176827 0.000000 -10.996318 45.629560 0.000000 -10.684354 48.896082 0.000000 -11.020709 45.667237 0.000000 -8.428833 47.176892 0.000000 -11.045119 45.699592 0.000000 -13.745682 48.182035 0.000000 -13.503805 45.765835 0.000000 -19.574192 46.254741 0.000000 -15.852615 45.310506 0.000000 -16.670337 47.279917 0.000000 -16.663492 47.283690 0.000000 -15.786902 45.339767 0.000000 -13.728773 48.216862 0.000000 -13.508526 45.763615 0.000000 -13.745733 48.180279 0.000000 -15.808903 45.306798 0.000000 22.312856 44.846418 0.000000 19.530002 46.165160 0.000000 20.357558 43.620579 0.000000 20.370562 43.549116 0.000000 19.534362 46.090846 0.000000 18.139692 43.619374 0.000000 16.250115 45.573223 0.000000 18.104215 43.609988 0.000000 19.508732 46.075868 0.000000 18.121246 43.592418 0.000000 16.245283 45.534762 0.000000 15.614051 43.169131 0.000000 13.914559 45.059674 0.000000 15.613895 43.170288 0.000000 16.245564 45.535800 0.000000 10.983470 45.560387 0.000000 13.037244 42.900256 0.000000 13.918133 45.056459 0.000000 15.616849 43.166081 0.000000 13.917885 45.055800 0.000000 13.038545 42.898961 0.000000 13.044519 42.890874 0.000000 10.985295 45.546764 0.000000 10.598949 42.476186 0.000000 6.936849 44.931980 0.000000 8.660164 43.883202 0.000000 8.393185 45.748797 0.000000 10.598666 42.473902 0.000000 10.984992 45.544487 0.000000 8.657164 43.885602 0.000000 8.392486 45.753552 0.000000 8.660476 43.888050 0.000000 10.988104 45.547206 0.000000 4.542233 44.923631 0.000000 6.574099 43.022680 0.000000 6.938537 44.924838 0.000000 8.663989 43.880902 0.000000 6.938852 44.926502 0.000000 6.574421 43.024395 0.000000 6.559151 43.025634 0.000000 4.527569 44.927411 0.000000 4.640212 42.380970 0.000000 0.311286 45.097497 0.000000 2.137391 42.714097 0.000000 2.377543 44.949847 0.000000 4.638122 42.373806 0.000000 4.527964 44.920566 0.000000 2.139735 42.729324 0.000000 2.379259 44.966694 0.000000 2.140717 42.730225 0.000000 4.529109 44.921612 0.000000 2.133959 42.718580 0.000000 0.307912 45.101903 0.000000 -0.438487 42.938856 0.000000 -4.436451 45.900423 0.000000 -2.220678 44.169979 0.000000 -1.921512 46.151197 0.000000 -0.442336 42.931422 0.000000 0.304446 45.094320 0.000000 -2.213558 44.161309 0.000000 -1.916849 46.141102 0.000000 -2.216262 44.160295 0.000000 0.301790 45.093335 0.000000 -2.221089 44.170307 0.000000 -4.436809 45.900701 0.000000 -4.487295 43.112843 0.000000 -8.322946 45.336471 0.000000 -6.604656 44.315141 0.000000 -6.770760 46.090036 0.000000 -4.487084 43.122724 0.000000 -4.438272 45.910616 0.000000 -6.604391 44.307730 0.000000 -6.770481 46.087051 0.000000 -6.604380 44.312162 0.000000 -4.436304 45.911992 0.000000 -10.988420 45.627143 0.000000 -8.826680 43.468675 0.000000 -8.320006 45.335586 0.000000 -6.601975 44.313561 0.000000 -8.320220 45.334767 0.000000 -8.826913 43.467854 0.000000 -8.825966 43.467977 0.000000 -10.987728 45.626417 0.000000 -11.145715 42.557282 0.000000 -15.772943 45.279858 0.000000 -13.404751 43.829440 0.000000 -13.469466 45.720772 0.000000 -11.145574 42.560350 0.000000 -10.987573 45.629467 0.000000 -13.366911 43.807784 0.000000 -13.465644 45.718049 0.000000 -13.380893 43.827509 0.000000 -11.006847 45.656129 0.000000 -13.370704 43.808525 0.000000 -15.751812 45.237652 0.000000 -15.575376 42.444949 0.000000 -19.499479 46.081671 0.000000 -18.037690 43.357431 0.000000 -15.749722 45.256425 0.000000 -15.580193 42.450072 0.000000 -15.752573 45.243032 0.000000 -18.046038 43.350678 0.000000 -18.052149 43.360484 0.000000 -19.506399 46.088768 0.000000 -20.307328 43.548076 0.000000 -22.329786 44.851169 0.000000 -20.306851 43.634685 0.000000 -19.556992 46.190935 0.000000 27.716872 41.788943 0.000000 25.098220 43.409443 0.000000 25.507350 40.810940 0.000000 25.488366 40.813130 0.000000 25.093149 43.413785 0.000000 22.373263 41.454878 0.000000 20.369262 43.559775 0.000000 22.310339 41.374991 0.000000 22.312496 44.804650 0.000000 25.041953 43.387402 0.000000 22.337669 44.860564 0.000000 22.320301 41.430949 0.000000 18.116207 43.604813 0.000000 19.544653 41.894516 0.000000 20.347527 43.549896 0.000000 22.307929 41.369459 0.000000 20.357559 43.545950 0.000000 19.560858 41.887565 0.000000 15.615139 43.168359 0.000000 17.464876 41.352611 0.000000 18.122178 43.592585 0.000000 19.552481 41.885192 0.000000 18.122676 43.594314 0.000000 17.465671 41.354251 0.000000 17.466689 41.350548 0.000000 15.617037 43.166355 0.000000 14.902800 40.568434 0.000000 13.038832 42.897910 0.000000 14.902018 40.568415 0.000000 15.616981 43.166109 0.000000 14.907268 40.561891 0.000000 13.041619 42.889396 0.000000 12.220639 40.542075 0.000000 10.596385 42.475160 0.000000 12.221006 40.543081 0.000000 13.041878 42.890432 0.000000 12.223194 40.540551 0.000000 10.597552 42.471606 0.000000 10.208635 40.398863 0.000000 6.566514 43.021183 0.000000 8.467719 41.566317 0.000000 8.656146 43.877577 0.000000 10.208443 40.397775 0.000000 10.597337 42.470502 0.000000 8.465354 41.569021 0.000000 8.657169 43.881329 0.000000 8.467974 41.570123 0.000000 10.599960 42.471611 0.000000 8.460160 41.570863 0.000000 6.559094 43.026608 0.000000 6.146361 40.461139 0.000000 4.640016 42.380907 0.000000 6.146220 40.460257 0.000000 6.558923 43.025561 0.000000 6.146237 40.460247 0.000000 4.639963 42.380939 0.000000 3.819332 40.751130 0.000000 2.138081 42.729576 0.000000 3.813742 40.745188 0.000000 4.636420 42.373969 0.000000 3.813834 40.744892 0.000000 2.138274 42.729370 0.000000 1.970160 39.859076 0.000000 1.966826 39.850891 0.000000 2.135787 42.720592 0.000000 -0.108329 40.894127 0.000000 -0.439026 42.938907 0.000000 -0.110779 40.892132 0.000000 2.133399 42.718639 0.000000 -4.482449 43.115105 0.000000 -2.326086 41.811020 0.000000 -2.216100 44.172638 0.000000 -0.112288 40.890049 0.000000 -0.439641 42.936733 0.000000 -2.321183 41.805442 0.000000 -2.216474 44.163347 0.000000 -2.326509 41.802235 0.000000 -0.445180 42.933400 0.000000 -2.327470 41.811870 0.000000 -4.483825 43.115927 0.000000 -4.555334 40.560563 0.000000 -8.827610 43.465314 0.000000 -6.777938 41.946070 0.000000 -6.603214 44.313141 0.000000 -6.603670 44.307327 0.000000 -6.777843 41.940138 0.000000 -4.486441 43.122366 0.000000 -4.556790 40.566772 0.000000 -4.486872 43.122146 0.000000 -6.778302 41.939899 0.000000 -11.145559 42.555237 0.000000 -9.127512 41.021527 0.000000 -8.826430 43.467813 0.000000 -6.777164 41.945499 0.000000 -
[...]
<PointData Vectors='Velocity Force Displacement'>
<DataArray type='Float32' Name='Velocity' NumberOfComponents='3' format='ascii'>
1.036844 5.027257 0.000000 1.308099 6.412058 0.000000 0.341919 5.882848 0.000000 -0.215219 7.425160 0.000000 -1.389017 6.631943 0.000000 -0.385511 6.126449 0.000000 1.811865 3.206676 0.000000 0.624264 2.519890 0.000000 1.975666 1.874216 0.000000 1.687946 1.991453 0.000000 0.099854 0.879667 0.000000 1.583874 0.856014 0.000000 -0.079840 -1.014688 0.000000 1.594226 -0.552795 0.000000 0.159367 0.485044 0.000000 1.542059 0.415981 0.000000 0.180876 0.505273 0.000000 1.586586 -0.554392 0.000000 -0.105322 -1.167071 0.000000 -0.021397 -1.014377 0.000000 -0.068424 -1.082592 0.000000 -0.058148 -0.999274 0.000000 -0.065878 -1.082363 0.000000 -0.018277 -1.034956 0.000000 -0.088806 -1.078805 0.000000 -0.062986 -1.014006 0.000000 -0.046316 -1.151739 0.000000 -0.246579 2.007995 0.000000 -2.234404 0.276319 0.000000 -0.047804 -1.063191 0.000000 -2.246247 0.264118 0.000000 -0.701655 1.634819 0.000000 -2.270543 1.549928 0.000000 -1.018820 4.667912 0.000000 -1.231136 4.470250 0.000000 -0.972982 4.290434 0.000000 -2.225539 1.552772 0.000000 -0.826965 1.617983 0.000000 -2.293789 2.649725 0.000000 -1.614234 1.146381 0.000000 -0.520774 2.152642 0.000000 -1.939893 2.635448 0.000000 -1.019510 6.100645 0.000000 -0.888041 6.279745 0.000000 -1.064429 6.337675 0.000000 8.418140 12.671363 0.000000 6.601927 7.492802 0.000000 9.569661 6.909628 0.000000 3.910862 7.011114 0.000000 4.735899 9.477889 0.000000 2.518786 7.353375 0.000000 1.302922 2.435576 0.000000 2.578145 3.674885 0.000000 1.077801 3.577302 0.000000 1.132403 3.953056 0.000000 -0.028580 2.587958 0.000000 2.108673 2.753403 0.000000 1.139735 4.855484 0.000000 1.096935 4.851904 0.000000 1.130086 4.816950 0.000000 0.371252 2.642206 0.000000 0.170971 2.629790 0.000000 0.348233 2.463955 0.000000 1.034143 2.090253 0.000000 0.956042 1.993889 0.000000 1.038233 1.970078 0.000000 1.056641 1.750934 0.000000 1.149703 1.912801 0.000000 1.024441 1.953495 0.000000 1.062201 1.925275 0.000000 0.960176 1.840989 0.000000 1.116132 1.849175 0.000000 1.077639 -0.559889 0.000000 1.364662 -0.378862 0.000000 0.801955 -0.169298 0.000000 1.384675 0.532343 0.000000 0.861692 0.377266 0.000000 1.391882 -0.133699 0.000000 1.063353 -0.160851 0.000000 1.393127 -0.122671 0.000000 0.868670 0.382605 0.000000 0.077507 0.650138 0.000000 0.117018 0.668658 0.000000 0.088125 0.679317 0.000000 -0.099110 -1.121273 0.000000 0.009500 -1.104765 0.000000 -0.095585 -1.002537 0.000000 -0.069649 -1.081193 0.000000 -0.252445 -1.143351 0.000000 -0.110874 -1.212771 0.000000 -0.114020 -1.218787 0.000000 -0.082712 -1.080451 0.000000 -0.089714 -1.158712 0.000000 -0.090972 -1.158666 0.000000 -0.148021 -1.213172 0.000000 -0.077709 -1.075186 0.000000 -0.979578 1.645569 0.000000 -1.603835 1.089003 0.000000 -0.933892 1.101438 0.000000 -0.364668 0.137980 0.000000 -0.728893 -0.082083 0.000000 -0.374216 -0.510592 0.000000 -0.470566 1.160480 0.000000 -1.609904 1.063391 0.000000 -0.421524 0.290453 0.000000 -1.042054 2.722636 0.000000 -1.563584 1.922746 0.000000 -0.785327 1.574482 0.000000 -1.606159 1.092404 0.000000 -1.088327 1.567649 0.000000 -1.563228 1.779872 0.000000 -0.719709 1.529162 0.000000 -0.579376 1.761796 0.000000 -0.830344 1.723253 0.000000 -2.525943 5.486020 0.000000 -2.287048 5.747164 0.000000 -2.599128 5.773993 0.000000 -0.916969 1.733001 0.000000 -0.515259 1.754362 0.000000 -0.844111 2.288208 0.000000 0.068681 3.318321 0.000000 -2.507317 3.586640 0.000000 -1.302888 1.518834 0.000000 -3.550740 5.303732 0.000000 -3.314673 5.548928 0.000000 -3.541072 5.528621 0.000000 -4.991071 11.620617 0.000000 -6.536113 5.530520 0.000000 -3.313355 6.868723 0.000000 -2.911175 7.427694 0.000000 -3.119513 7.334603 0.000000 -2.817891 7.101771 0.000000 -3.622727 5.558635 0.000000 -3.503462 5.564342 0.000000 -3.642965 5.681990 0.000000 1.463450 4.957835 0.000000 2.310111 6.744526 0.000000 0.676411 6.213195 0.000000 1.315766 2.576300 0.000000 2.266955 2.946026 0.000000 1.329022 3.470777 0.000000 1.159956 3.804910 0.000000 0.173254 2.879589 0.000000 1.410208 2.182881 0.000000 0.590419 2.363372 0.000000 0.645632 2.426541 0.000000 0.566779 2.450422 0.000000 0.705790 2.572699 0.000000 0.573116 2.452535 0.000000 0.736100 2.409611 0.000000 0.820601 2.900687 0.000000 0.586674 2.746293 0.000000 0.772537 2.681184 0.000000 0.575011 2.489943 0.000000 0.618507 2.526435 0.000000 0.568351 2.547158 0.000000 1.043603 2.051323 0.000000 0.762231 1.817071 0.000000 1.090503 1.821971 0.000000 1.115101 1.850854 0.000000 0.957031 1.553162 0.000000 1.258932 1.599109 0.000000 1.095937 1.817306 0.000000 0.738524 1.865233 0.000000 0.929641 1.595648 0.000000 1.181650 1.927850 0.000000 1.342123 1.952487 0.000000 1.204709 2.148273 0.000000 1.355113 -0.140264 0.000000 1.945397 0.422209 0.000000 1.379801 0.529690 0.000000 1.695594 1.063783 0.000000 1.377977 0.530391 0.000000 1.946176 0.415110 0.000000 0.289378 0.879224 0.000000 0.087738 0.642916 0.000000 0.387334 0.606587 0.000000 -0.099655 -1.007666 0.000000 -0.109314 -1.173884 0.000000 -0.095510 -1.120155 0.000000 -0.008436 0.598032 0.000000 0.085716 0.644593 0.000000 0.008845 0.667077 0.000000 0.091917 0.690143 0.000000 0.053973 0.703041 0.000000 0.084273 0.635983 0.000000 -0.217604 -1.038196 0.000000 -0.111275 -0.986552 0.000000 -0.219491 -0.942844 0.000000 -1.768996 -0.642742 0.000000 -1.531562 -0.308898 0.000000 -1.799415 -0.129049 0.000000 -0.398925 -1.199565 0.000000 -0.255092 -1.142927 0.000000 -0.303455 -1.084097 0.000000 -0.254433 -1.077401 0.000000 -0.292924 -1.091216 0.000000 -0.289065 -1.150412 0.000000 -1.515050 -0.325958 0.000000 -1.797591 -0.619992 0.000000 -1.336596 -0.683622 0.000000 -1.283269 1.491188 0.000000 -1.382763 1.325816 0.000000 -1.232931 1.337666 0.000000 -1.298988 0.854510 0.000000 -1.373517 0.907652 0.000000 -1.354869 0.675816 0.000000 -1.222857 1.218262 0.000000 -1.372962 1.200118 0.000000 -1.203303 1.068220 0.000000 -1.067964 1.792009 0.000000 -1.279680 1.540662 0.000000 -1.111385 1.468384 0.000000 -1.223358 1.242548 0.000000 -1.106803 1.460639 0.000000 -1.307910 1.519250 0.000000 -1.286317 1.498440 0.000000 -0.813668 1.847248 0.000000 -1.247440 1.783721 0.000000 -1.624981 3.820386 0.000000 -1.914102 3.348332 0.000000 -1.537097 3.361232 0.000000 -1.297067 2.092372 0.000000 -0.980780 1.965019 0.000000 -1.087485 2.458131 0.000000 -1.237902 2.524848 0.000000 -0.965520 2.537058 0.000000 -1.228980 2.879102 0.000000 -0.275305 2.333262 0.000000 -0.177562 2.425442 0.000000 -0.354944 2.420243 0.000000 -0.325513 2.623652 0.000000 -0.134876 2.773267 0.000000 -0.251529 2.953255 0.000000 -0.827643 2.303127 0.000000 -0.602899 2.325610 0.000000 -0.677079 2.516697 0.000000 -1.069382 2.518882 0.000000 -0.673729 2.730431 0.000000 -1.042624 2.846219 0.000000 -2.406684 5.223006 0.000000 -1.105576 7.386599 0.000000 -3.839579 8.188640 0.000000 6.184735 6.694672 0.000000 6.101487 6.560147 0.000000 6.234977 6.581165 0.000000 4.769150 6.557912 0.000000 5.723604 6.702963 0.000000 5.004670 7.701172 0.000000 1.236945 2.995788 0.000000 1.083744 2.859675 0.000000 1.324238 2.859524 0.000000 2.340368 4.989674 0.000000 2.886453 5.992134 0.000000 1.615121 5.998566 0.000000 0.385718 2.257608 0.000000 0.538096 2.392668 0.000000 0.361666 2.510000 0.000000 1.052190 2.895268 0.000000 0.605410 2.495246 0.000000 0.945250 2.331243 0.000000 0.593071 2.377052 0.000000 0.577389 2.362189 0.000000 0.587145 2.365312 0.000000 0.505150 2.342106 0.000000 0.601981 2.418107 0.000000 0.466046 2.452487 0.000000 0.742362 2.344549 0.000000 0.769061 2.391812 0.000000 0.719497 2.411026 0.000000 0.830797 2.173371 0.000000 1.042380 2.387181 0.000000 0.795285 2.508780 0.000000 1.240097 2.158919 0.000000 0.880251 1.915505 0.000000 1.166461 1.839611 0.000000 0.878229 1.605757 0.000000 1.166670 1.836826 0.000000 0.789013 1.997142 0.000000 1.589045 1.308229 0.000000 1.489327 1.201425 0.000000 1.579431 1.224452 0.000000 1.159162 0.086529 0.000000 1.634917 0.649190 0.000000 0.897301 0.736363 0.000000 1.557224 1.105326 0.000000 1.462866 1.111272 0.000000 1.495024 0.988480 0.000000 1.544108 1.071131 0.000000 1.646417 1.052589 0.000000 1.592105 1.168000 0.000000 0.555752 1.249511 0.000000 0.290728 0.953942 0.000000 0.715567 0.855097 0.000000 0.335051 0.607992 0.000000 0.693591 0.757100 0.000000 0.252907 0.860454 0.000000 0.484389 1.008789 0.000000 0.178761 0.770816 0.000000 0.451457 0.617710 0.000000 0.074288 0.703784 0.000000 -0.156423 0.526470 0.000000 0.007319 0.451909 0.000000 0.080980 0.487168 0.000000 0.113563 0.538560 0.000000 0.096442 0.456391 0.000000 0.039530 -0.680694 0.000000 0.131277 -0.751674 0.000000 0.081026 -0.622150 0.000000 -0.216365 -0.945332 0.000000 -0.304727 -0.935641 0.000000 -0.217202 -1.036272 0.000000 -0.420641 -0.209748 0.000000 -0.592651 -0.167620 0.000000 -0.605609 0.080820 0.000000 -0.348272 -0.921383 0.000000 -0.124302 -0.816735 0.000000 -0.223960 -0.667788 0.000000 -0.479649 -0.951955 0.000000 -0.449766 -0.792795 0.000000 -0.562367 -1.074252 0.000000 -0.853120 0.052320 0.000000 -0.885335 0.004157 0.000000 -0.813935 -0.053498 0.000000 -1.312769 0.888059 0.000000 -1.112333 1.204332 0.000000 -1.338913 1.194653 0.000000 -1.376633 0.691892 0.000000 -1.132005 0.632350 0.000000 -1.267909 0.830064 0.000000 -1.120152 0.762081 0.000000 -1.369316 0.778139 0.000000 -1.263779 0.543210 0.000000 -1.210645 1.165068 0.000000 -1.020866 1.435896 0.000000 -1.306293 1.497935 0.000000 -1.105830 1.201506 0.000000 -1.363327 0.896315 0.000000 -0.947728 0.825382 0.000000 -0.987103 1.445875 0.000000 -1.226973 1.155443 0.000000 -0.877395 1.146131 0.000000 -0.474059 2.150424 0.000000 -0.504249 2.091536 0.000000 -0.439063 2.093803 0.000000 -0.683598 2.029178 0.000000 -0.520136 2.024959 0.000000 -0.713265 2.108211 0.000000 -0.796105 1.745624 0.000000 -1.197215 1.783069 0.000000 -0.977649 1.383066 0.000000 -0.384901 1.925432 0.000000 -0.318903 2.075041 0.000000 -0.470715 2.070900 0.000000 -0.512257 2.085059 0.000000 -0.316694 2.102518 0.000000 -0.438539 2.244271 0.000000 -0.771736 2.335004 0.000000 -0.624760 2.363233 0.000000 -0.711192 2.494837 0.000000 -0.672689 2.271362 0.000000 -0.607820 2.275276 0.000000 -0.653511 2.327396 0.000000 -0.669159 2.393003 0.000000 -0.762248 2.340435 0.000000 -0.693830 2.269634 0.000000 -2.812246 4.521449 0.000000 -2.798685 4.555534 0.000000 -2.836147 4.555048 0.000000 -1.182913 3.313603 0.000000 -1.310630 3.258022 0.000000 -1.176248 3.124924 0.000000 -1.949407 3.745209 0.000000 -1.216280 3.791456 0.000000 -1.654945 4.215774 0.000000 -1.000477 2.941687 0.000000 -0.905669 3.108562 0.000000 -1.078968 3.114332 0.000000 -2.745135 5.102259 0.000000 -2.881547 4.847549 0.000000 -2.589652 4.838886 0.000000 8.253843 7.051666 0.000000 6.760525 5.142383 0.000000 7.990804 5.071963 0.000000 2.286245 4.431145 0.000000 2.546635 4.761042 0.000000 2.145835 4.745642 0.000000 3.818723 5.075898 0.000000 3.413419 5.062002 0.000000 3.563033 4.715407 0.000000 2.383427 4.389668 0.000000 2.425853 4.386525 0.000000 2.398176 4.452438 0.000000 2.076184 4.421501 0.000000 1.724886 3.982983 0.000000 2.173725 3.795049 0.000000 2.321097 4.545006 0.000000 2.017903 4.329729 0.000000 2.256584 4.229442 0.000000 1.155009 3.187374 0.000000 0.710444 2.829969 0.000000 1.109063 2.804171 0.000000 0.816790 2.139696 0.000000 1.075115 2.427565 0.000000 0.702095 2.415948 0.000000 1.104566 2.803067 0.000000 0.679668 2.944671 0.000000 0.970725 2.558045 0.000000 0.709191 2.266872 0.000000 1.290423 2.250550 0.000000 0.860320 2.962466 0.000000 0.985429 2.526470 0.000000 0.919153 2.406975 0.000000 1.007993 2.391747 0.000000 1.026187 2.490215 0.000000 0.997970 2.394041 0.000000 1.046305 2.382327 0.000000 0.415054 1.526657 0.000000 0.395073 1.491016 0.000000 0.449056 1.487079 0.000000 0.714848 1.663320 0.000000 0.373738 1.592968 0.000000 0.611110 1.385436 0.000000 0.351286 1.204262 0.000000 0.605721 1.383841 0.000000 0.349814 1.579043 0.000000 0.804945 0.994476 0.000000 0.964473 1.112402 0.000000 0.847656 1.255463 0.000000 0.941852 1.150280 0.000000 0.803833 1.197894 0.000000 0.960402 1.070577 0.000000 0.671938 0.875541 0.000000 0.928514 1.206383 0.000000 0.552393 1.202704 0.000000 0.838298 1.172295 0.000000 0.913756 1.267311 0.000000 0.907595 1.218768 0.000000 0.628923 1.108834 0.000000 0.766903 1.085891 0.000000 0.695446 1.168199 0.000000 0.563596 1.124284 0.000000 0.478004 1.000510 0.000000 0.642260 0.986085 0.000000 0.098889 0.448957 0.000000 0.177588 0.545349 0.000000 0.085874 0.496384 0.000000 0.403427 1.131184 0.000000 0.174693 1.043970 0.000000 0.352619 0.877069 0.000000 0.079113 0.774372 0.000000 0.280665 0.801181 0.000000 0.109354 0.981183 0.000000 0.131008 0.574353 0.000000 0.052292 0.429805 0.000000 0.171149 0.438530 0.000000 -0.065740 -0.450130 0.000000 0.113720 -0.517715 0.000000 0.030268 -0.389270 0.000000 -0.057895 -0.548249 0.000000 -0.145303 -0.485116 0.000000 -0.080658 -0.619408 0.000000 -0.779823 -0.043269 0.000000 -0.792778 -0.083294 0.000000 -0.851129 0.115777 0.000000 -0.029414 -0.349691 0.000000 -0.094091 -0.315013 0.000000 -0.022848 -0.403891 0.000000 -0.504161 -0.539306 0.000000 -0.881201 -0.555849 0.000000 -0.654496 -0.801639 0.000000 -0.799346 -0.082848 0.000000 -0.764107 -0.049946 0.000000 -0.796316 -0.132007 0.000000 -1.131879 1.176475 0.000000 -1.132112 1.205165 0.000000 -1.108349 1.190087 0.000000 -0.894714 0.775647 0.000000 -1.068546 0.794724 0.000000 -0.992226 0.495088 0.000000 -1.276929 0.553278 0.000000 -0.991355 0.497580 0.000000 -1.135896 0.759427 0.000000 -1.075531 1.322665 0.000000 -0.950814 1.556470 0.000000 -1.198828 1.648525 0.000000 -1.137824 1.194788 0.000000 -1.134152 1.168302 0.000000 -1.040404 1.128569 0.000000 -0.913851 1.528612 0.000000 -1.063397 1.323164 0.000000 -0.834211 1.318573 0.000000 -0.455673 1.947679 0.000000 -0.477515 1.907034 0.000000 -0.446955 1.914562 0.000000 -0.612969 1.753464 0.000000 -0.732810 1.737515 0.000000 -0.625545 1.670815 0.000000 -0.835659 1.586252 0.000000 -1.065642 1.584931 0.000000 -0.837281 1.309409 0.000000 -0.577510 1.946782 0.000000 -0.556328 1.982213 0.000000 -0.591214 1.985016 0.000000 -0.439551 2.242731 0.000000 -0.555240 2.213615 0.000000 -0.499625 2.104891 0.000000 -0.616031 1.978780 0.000000 -0.452798 1.969961 0.000000 -0.522460 2.098827 0.000000 -0.926060 2.826732 0.000000 -1.420054 2.309457 0.000000 -0.906810 2.278062 0.000000 -0.566461 2.251832 0.000000 -0.515155 2.263251 0.000000 -0.553704 2.320487 0.000000 -0.707136 2.340406 0.000000 -0.601975 2.295104 0.000000 -0.670176 2.419496 0.000000 -0.623356 2.759770 0.000000 -0.420200 3.008660 0.000000 -0.779565 3.076484 0.000000 -1.150900 2.209940 0.000000 -0.810351 2.557651 0.000000 -1.269562 2.655004 0.000000 -1.305792 2.455472 0.000000 -0.920446 2.946255 0.000000 -1.477436 3.024949 0.000000 -2.647584 5.656114 0.000000 -2.510754 6.072688 0.000000 -2.939491 6.066546 0.000000 -1.725258 3.993300 0.000000 -0.838752 3.866439 0.000000 -1.259924 4.715797 0.000000 -2.765121 4.729342 0.000000 -3.228438 4.725219 0.000000 -3.007679 4.282600 0.000000 -3.864116 4.906454 0.000000 -4.237530 5.373512 0.000000 -4.243320 4.798845 0.000000 -3.682648 4.483019 0.000000 -3.360218 5.440193 0.000000 -4.096378 5.233032 0.000000 4.488475 6.263336 0.000000 3.083683 4.694217 0.000000 4.588774 4.364705 0.000000 0.956072 4.057542 0.000000 1.281178 4.347872 0.000000 1.030938 4.394160 0.000000 2.914134 4.346212 0.000000 2.973659 4.335148 0.000000 2.927348 4.434009 0.000000 2.637689 4.476422 0.000000 2.428205 4.532613 0.000000 2.560664 4.254401 0.000000 0.852383 4.011889 0.000000 0.794331 3.934736 0.000000 0.851422 3.945462 0.000000 1.078284 4.422818 0.000000 0.690218 4.078525 0.000000 1.119834 3.907151 0.000000 0.688885 3.084345 0.000000 1.128261 3.486469 0.000000 0.628406 3.428065 0.000000 0.291836 2.322896 0.000000 0.406796 2.335836 0.000000 0.322444 2.435459 0.000000 0.402570 2.501307 0.000000 0.343495 2.448078 0.000000 0.408955 2.338693 0.000000 0.539194 1.727527 0.000000 0.625880 1.737762 0.000000 0.569048 1.780988 0.000000 0.603106 1.800393 0.000000 0.582434 1.788429 0.000000 0.597435 1.793431 0.000000 0.522078 1.493011 0.000000 0.580426 1.670290 0.000000 0.424395 1.605946 0.000000 0.589107 1.773352 0.000000 0.468432 1.725949 0.000000 0.583065 1.664673 0.000000 0.502174 1.773757 0.000000 0.532885 1.788136 0.000000 0.498388 1.808091 0.000000 0.637387 1.574947 0.000000 0.621710 1.656535 0.000000 0.606702 1.636218 0.000000 0.610336 1.046460 0.000000 0.837444 1.415362 0.000000 0.526227 1.423074 0.000000 0.434218 1.392898 0.000000 0.698574 1.455884 0.000000 0.432538 1.710007 0.000000 0.685278 1.391399 0.000000 0.816897 1.394997 0.000000 0.720264 1.513718 0.000000 0.602308 1.523293 0.000000 0.413243 1.308959 0.000000 0.586042 1.274746 0.000000 0.638965 0.998042 0.000000 0.589632 0.951287 0.000000 0.660359 0.953839 0.000000 0.548992 1.345830 0.000000 0.512358 1.356266 0.000000 0.552528 1.308813 0.000000 0.492032 1.368936 0.000000 0.544849 1.328517 0.000000 0.496736 1.363202 0.000000 0.492085 1.195587 0.000000 0.417671 1.128800 0.000000 0.495888 1.117442 0.000000 0.364831 0.898410 0.000000 0.435181 0.963179 0.000000 0.357204 1.012237 0.000000 0.407764 1.031021 0.000000 0.313587 0.943844 0.000000 0.392503 0.947183 0.000000 0.168866 0.458083 0.000000 0.206121 0.538375 0.000000 0.135414 0.551869 0.000000 0.268501 0.026995 0.000000 0.329791 0.017197 0.000000 0.270069 0.001608 0.000000 -0.035584 -0.248780 0.000000 -0.227363 -0.320060 0.000000 -0.029059 -0.373232 0.000000 -0.244014 -0.370621 0.000000 -0.072436 -0.459638 0.000000 -0.131042 -0.227024 0.000000 -0.014216 -0.346959 0.000000 -0.132880 -0.224050 0.000000 -0.060327 -0.456832 0.000000 -0.302827 -0.190321 0.000000 -0.159180 -0.115113 0.000000 -0.273075 -0.132874 0.000000 -0.769102 -0.122733 0.000000 -0.788744 -0.199516 0.000000 -0.810184 -0.088628 0.000000 -0.792332 -0.207342 0.000000 -0.741036 -0.118187 0.000000 -0.797069 -0.136646 0.000000 -0.903237 0.626383 0.000000 -1.047149 0.623377 0.000000 -0.888476 0.455169 0.000000 -1.013516 0.499001 0.000000 -0.759911 0.586483 0.000000 -0.888162 0.761308 0.000000 -0.882296 0.987919 0.000000 -1.154587 0.930834 0.000000 -0.963559 0.725053 0.000000 -0.910534 1.133809 0.000000 -0.801722 1.212374 0.000000 -0.896245 1.294187 0.000000 -0.766052 1.456018 0.000000 -0.795852 1.441509 0.000000 -0.777503 1.434291 0.000000 -0.761559 1.354582 0.000000 -0.778475 1.343119 0.000000 -0.777774 1.341724 0.000000 -0.980164 1.069617 0.000000 -0.918420 1.123121 0.000000 -0.983029 1.058454 0.000000 -0.512507 1.902849 0.000000 -0.576409 1.793493 0.000000 -0.693228 1.809823 0.000000 -0.819892 1.454745 0.000000 -0.768290 1.444017 0.000000 -0.792307 1.405557 0.000000 -0.466974 1.876855 0.000000 -0.634968 1.753793 0.000000 -0.496623 1.859450 0.000000 -0.554386 2.325071 0.000000 -0.685161 2.222922 0.000000 -0.571964 2.187248 0.000000 -0.468248 2.159505 0.000000 -0.678900 2.231908 0.000000 -0.614743 1.981461 0.000000 -0.694613 2.153852 0.000000 -0.585097 2.121102 0.000000 -0.619992 2.250332 0.000000 -0.745502 2.589503 0.000000 -0.861408 2.482788 0.000000 -0.684743 2.432672 0.000000 -0.682250 2.225045 0.000000 -0.550012 2.319343 0.000000 -0.717693 2.394640 0.000000 -0.719528 2.311249 0.000000 -0.470982 2.556070 0.000000 -0.799080 2.656471 0.000000 -0.791852 3.100449 0.000000 -1.106294 2.822211 0.000000 -0.666387 2.686626 0.000000 -0.932183 2.539664 0.000000 -0.292264 3.107395 0.000000 -0.907998 3.261343 0.000000 -2.295198 4.358392 0.000000 -2.030322 4.802650 0.000000 -2.554558 4.819658 0.000000 -1.117775 3.324404 0.000000 -1.294855 3.330654 0.000000 -1.225193 3.156446 0.000000 -0.986108 3.263459 0.000000 -0.750463 3.205393 0.000000 -0.859372 3.478623 0.000000 -1.833985 4.450411 0.000000 -1.999691 4.173257 0.000000 -1.717809 4.119783 0.000000 -2.465487 4.308211 0.000000 -2.083089 4.812781 0.000000 -2.461808 4.886465 0.000000 -5.756775 4.419283 0.000000 -5.744562 4.405892 0.000000 -5.741508 4.421998 0.000000 -4.247008 4.999890 0.000000 -4.192648 5.071254 0.000000 -4.264363 5.058734 0.000000 6.910374 10.3