<?xml version='1.0'?>
<VTKFile type='PolyData' version='0.1' byte_order='LittleEndian'><PolyData>
<Piece NumberOfPoints='9000' NumberOfVerts='0' NumberOfLines='0' NumberOfStrips='0' NumberOfPolys='3000'>
<Points>
<DataArray type='Float32' NumberOfComponents='3' format='ascii'>
10.705305 48.878581 0.000000 7.680539 49.456605 0.000000 8.845149 47.353440 0.000000 4.610550 49.840893 0.000000 6.487170 47.089152 0.000000 7.665592 49.453498 0.000000 8.848500 47.323266 0.000000 7.663856 49.415207 0.000000 6.505581 47.040899 0.000000 6.512225 47.047575 0.000000 4.627994 49.794105 0.000000 4.554351 47.217959 0.000000 1.642483 49.962043 0.000000 2.539745 47.087781 0.000000 4.615185 49.789347 0.000000 4.554430 47.212202 0.000000 4.615446 49.788522 0.000000 2.539277 47.087268 0.000000 2.526186 47.083016 0.000000 1.642904 49.961709 0.000000 -0.329072 47.687956 0.000000 -1.641581 49.960004 0.000000 -0.330936 47.686180 0.000000 1.641464 49.959981 0.000000 -0.333526 47.688919 0.000000 -1.643033 49.962732 0.000000 -2.907345 47.880392 0.000000 -4.616744 49.807210 0.000000 -2.929507 47.892116 0.000000 -1.643122 49.961558 0.000000 -2.923809 47.885892 0.000000 -4.622743 49.790515 0.000000 -4.521945 47.822307 0.000000 -7.673194 49.442064 0.000000 -6.070281 47.724578 0.000000 -4.616606 49.817062 0.000000 -4.521946 47.823375 0.000000 -4.627799 49.791313 0.000000 -6.084671 47.701077 0.000000 -6.078107 47.695685 0.000000 -7.678155 49.415845 0.000000 -8.429434 47.168212 0.000000 -10.701475 48.886767 0.000000 -8.416595 47.206792 0.000000 -7.675371 49.457778 0.000000 19.553313 46.144453 0.000000 16.665944 47.215183 0.000000 16.309108 45.555917 0.000000 16.648679 47.211297 0.000000 13.720055 48.163411 0.000000 16.257384 45.559818 0.000000 16.246061 45.522122 0.000000 13.699655 48.116837 0.000000 13.914140 45.050478 0.000000 8.843009 47.330231 0.000000 10.970329 45.543636 0.000000 10.697602 48.862091 0.000000 10.703204 48.877928 0.000000 10.981135 45.559930 0.000000 13.690564 48.130256 0.000000 13.901425 45.041281 0.000000 13.681248 48.107238 0.000000 10.966342 45.542720 0.000000 10.980479 45.526139 0.000000 8.852589 47.312079 0.000000 8.384927 45.733809 0.000000 6.506065 47.040918 0.000000 8.384801 45.734272 0.000000 8.850268 47.313206 0.000000 8.384283 45.734580 0.000000 6.505546 47.041202 0.000000 6.929011 44.915862 0.000000 2.534080 47.087210 0.000000 4.533240 44.910980 0.000000 4.549662 47.203788 0.000000 6.928834 44.916794 0.000000 6.505349 47.042132 0.000000 4.532175 44.916965 0.000000 4.549658 47.212468 0.000000 4.534682 44.919659 0.000000 6.507884 47.044860 0.000000 4.524392 44.917929 0.000000 2.526445 47.095603 0.000000 2.374474 44.963545 0.000000 2.372221 44.954539 0.000000 2.523634 47.086350 0.000000 0.305819 45.100881 0.000000 -0.333877 47.688987 0.000000 0.303103 45.098440 0.000000 2.521089 47.084083 0.000000 0.302796 45.099176 0.000000 -0.333938 47.689389 0.000000 -1.916423 46.145842 0.000000 -2.907681 47.880427 0.000000 -1.917541 46.146005 0.000000 -0.334221 47.688980 0.000000 -6.071915 47.692312 0.000000 -4.435528 45.903799 0.000000 -4.509495 47.818564 0.000000 -1.919281 46.148898 0.000000 -2.909428 47.883551 0.000000 -4.434146 45.898255 0.000000 -4.509185 47.815099 0.000000 -4.435401 45.900374 0.000000 -2.911367 47.886552 0.000000 -8.420408 47.159513 0.000000 -6.768254 46.077231 0.000000 -6.070625 47.694022 0.000000 -4.434722 45.902873 0.000000 -6.071095 47.691423 0.000000 -6.769280 46.074923 0.000000 -6.768066 46.074340 0.000000 -8.418918 47.158552 0.000000 -8.320055 45.320215 0.000000 -13.698459 48.130699 0.000000 -10.994473 45.652286 0.000000 -10.713180 48.886539 0.000000 -8.320749 45.321470 0.000000 -8.419136 47.159756 0.000000 -10.989278 45.613276 0.000000 -10.686217 48.862828 0.000000 -10.996718 45.631559 0.000000 -8.417187 47.161430 0.000000 -11.009427 45.646097 0.000000 -13.710990 48.127456 0.000000 -13.468140 45.711351 0.000000 -19.523984 46.138540 0.000000 -15.787458 45.255329 0.000000 -16.637297 47.211096 0.000000 -16.636322 47.211535 0.000000 -15.760249 45.267377 0.000000 -13.701358 48.143922 0.000000 -13.469091 45.708596 0.000000 -13.711662 48.124724 0.000000 -15.768448 45.246683 0.000000 22.298189 44.796840 0.000000 19.506926 46.097688 0.000000 20.350802 43.558473 0.000000 20.357233 43.524702 0.000000 19.510386 46.062926 0.000000 18.126089 43.585634 0.000000 16.239650 45.534308 0.000000 18.105012 43.581768 0.000000 19.495323 46.055684 0.000000 18.115712 43.570983 0.000000 16.238255 45.511886 0.000000 15.608800 43.145867 0.000000 13.907814 45.036266 0.000000 15.608500 43.148095 0.000000 16.238486 45.514052 0.000000 10.975866 45.531642 0.000000 13.034029 42.874961 0.000000 13.911315 45.032652 0.000000 15.611860 43.144349 0.000000 13.911211 45.032322 0.000000 13.033902 42.874640 0.000000 13.037306 42.869994 0.000000 10.979459 45.526347 0.000000 10.591703 42.456124 0.000000 6.928515 44.915704 0.000000 8.652212 43.867510 0.000000 8.384595 45.732984 0.000000 10.591545 42.454691 0.000000 10.979230 45.525035 0.000000 8.650733 43.867135 0.000000 8.385195 45.733811 0.000000 8.652099 43.868165 0.000000 10.980530 45.525941 0.000000 4.530996 44.917007 0.000000 6.561266 43.013746 0.000000 6.927608 44.915491 0.000000 8.651883 43.867729 0.000000 6.927762 44.915536 0.000000 6.561248 43.013816 0.000000 6.556104 43.018603 0.000000 4.523298 44.919500 0.000000 4.637594 42.372870 0.000000 0.308015 45.100749 0.000000 2.135988 42.718168 0.000000 2.374362 44.954391 0.000000 4.633737 42.369035 0.000000 4.523126 44.915872 0.000000 2.135209 42.723992 0.000000 2.375302 44.962610 0.000000 2.137366 42.726037 0.000000 4.525247 44.917936 0.000000 2.135028 42.718599 0.000000 0.307581 45.101412 0.000000 -0.437524 42.937872 0.000000 -4.429207 45.897750 0.000000 -2.212849 44.168088 0.000000 -1.914267 46.149343 0.000000 -0.438314 42.935841 0.000000 0.306886 45.099321 0.000000 -2.210333 44.164753 0.000000 -1.914748 46.145061 0.000000 -2.212806 44.163828 0.000000 0.304448 45.098406 0.000000 -2.212964 44.168188 0.000000 -4.429218 45.897756 0.000000 -4.478838 43.110004 0.000000 -8.315722 45.321680 0.000000 -6.596577 44.301822 0.000000 -6.764049 46.076325 0.000000 -4.478778 43.113355 0.000000 -4.429158 45.900964 0.000000 -6.595725 44.299060 0.000000 -6.763674 46.074259 0.000000 -6.596371 44.299489 0.000000 -4.429318 45.901015 0.000000 -10.981462 45.610641 0.000000 -8.818203 43.453721 0.000000 -8.312763 45.320700 0.000000 -6.593849 44.300202 0.000000 -8.312945 45.320010 0.000000 -8.818445 43.452880 0.000000 -8.816719 43.452289 0.000000 -10.980353 45.608862 0.000000 -11.135846 42.539747 0.000000 -15.754894 45.239849 0.000000 -13.380655 43.799331 0.000000 -13.453271 45.690377 0.000000 -11.136534 42.537570 0.000000 -10.981600 45.606668 0.000000 -13.359190 43.782705 0.000000 -13.453265 45.692800 0.000000 -13.371238 43.802138 0.000000 -10.994556 45.627338 0.000000 -13.364757 43.786698 0.000000 -15.744019 45.218900 0.000000 -15.571176 42.425975 0.000000 -19.494145 46.057984 0.000000 -18.036478 43.331504 0.000000 -15.745588 45.226919 0.000000 -15.571961 42.430829 0.000000 -15.748668 45.223527 0.000000 -18.039191 43.327630 0.000000 -18.040181 43.337189 0.000000 -19.500959 46.061938 0.000000 -20.295792 43.519385 0.000000 -22.305628 44.798941 0.000000 -20.295819 43.560891 0.000000 -19.518663 46.108975 0.000000 27.655023 41.721997 0.000000 25.037206 43.343840 0.000000 25.445000 40.745129 0.000000 25.440665 40.747552 0.000000 25.035901 43.346748 0.000000 22.323238 41.377873 0.000000 20.356893 43.529817 0.000000 22.299502 41.346395 0.000000 22.299254 44.776054 0.000000 25.018538 43.337504 0.000000 22.308810 44.800631 0.000000 22.304156 41.370976 0.000000 18.115501 43.580828 0.000000 19.542038 41.868961 0.000000 20.346741 43.523478 0.000000 22.296834 41.344694 0.000000 20.350784 43.525048 0.000000 19.550795 41.868248 0.000000 15.609772 43.146048 0.000000 17.459683 41.330688 0.000000 18.116644 43.570766 0.000000 19.546727 41.862893 0.000000 18.116995 43.571979 0.000000 17.460027 41.331880 0.000000 17.460829 41.329579 0.000000 15.610829 43.144535 0.000000 14.897347 40.546416 0.000000 13.032897 42.874537 0.000000 14.897259 40.546111 0.000000 15.610760 43.144240 0.000000 14.900927 40.541011 0.000000 13.036992 42.869061 0.000000 12.214534 40.522249 0.000000 10.591692 42.456122 0.000000 12.214931 40.523366 0.000000 13.037334 42.870011 0.000000 12.216087 40.521989 0.000000 10.592937 42.454647 0.000000 10.201414 40.382583 0.000000 6.560046 43.013397 0.000000 8.459016 41.555431 0.000000 8.650985 43.866456 0.000000 10.201420 40.382517 0.000000 10.592953 42.454745 0.000000 8.459863 41.555877 0.000000 8.651018 43.866521 0.000000 8.459008 41.555505 0.000000 10.592035 42.454354 0.000000 8.457428 41.555127 0.000000 6.558515 43.013302 0.000000 6.142331 40.448358 0.000000 4.638961 42.373384 0.000000 6.142735 40.450637 0.000000 6.558652 43.015595 0.000000 6.139161 40.451351 0.000000 4.636767 42.375270 0.000000 3.812830 40.747131 0.000000 2.131720 42.723379 0.000000 3.807418 40.738895 0.000000 4.630057 42.367603 0.000000 3.810049 40.735791 0.000000 2.134407 42.720212 0.000000 1.966414 39.850066 0.000000 1.966282 39.848669 0.000000 2.134273 42.718558 0.000000 -0.109137 40.891306 0.000000 -0.438003 42.937931 0.000000 -0.109063 40.891353 0.000000 2.134389 42.718648 0.000000 -4.477708 43.110527 0.000000 -2.320753 41.807311 0.000000 -2.211961 44.168670 0.000000 -0.109152 40.891934 0.000000 -0.438081 42.938456 0.000000 -2.318553 41.806119 0.000000 -2.212091 44.165984 0.000000 -2.320868 41.804717 0.000000 -0.440204 42.937164 0.000000 -2.321615 41.807841 0.000000 -4.478470 43.110993 0.000000 -4.548985 40.555940 0.000000 -8.819415 43.452519 0.000000 -6.769789 41.933261 0.000000 -6.594892 44.299814 0.000000 -6.594984 44.298647 0.000000 -6.769908 41.931575 0.000000 -4.478153 43.113014 0.000000 -4.548939 40.557649 0.000000 -4.478411 43.112889 0.000000 -6.770090 41.931447 0.000000 -11.137869 42.538950 0.000000 -9.119638 41.005585 0.000000 -8.818718 43.451509 0.000000 -6.768981 41.932670 0.000000 -
[...]
<PointData Vectors='Velocity Force Displacement'>
<DataArray type='Float32' Name='Velocity' NumberOfComponents='3' format='ascii'>
1.094418 4.956154 0.000000 1.365047 6.419928 0.000000 0.350252 5.858987 0.000000 -0.218208 7.427085 0.000000 -1.388568 6.628864 0.000000 -0.382971 6.127602 0.000000 1.078276 2.596294 0.000000 0.120165 2.047578 0.000000 1.384800 1.456615 0.000000 1.470746 1.617967 0.000000 1.317519 1.557444 0.000000 1.616131 1.355504 0.000000 0.019386 -0.950314 0.000000 0.993823 -0.633970 0.000000 0.029712 0.061052 0.000000 1.367163 1.016969 0.000000 -0.248800 1.202542 0.000000 1.381032 -0.244923 0.000000 -0.004453 -1.183162 0.000000 0.005370 -1.011209 0.000000 0.141589 -0.867816 0.000000 0.012469 -0.887265 0.000000 0.098483 -1.005175 0.000000 -0.084849 -0.945720 0.000000 0.137233 -0.664896 0.000000 -0.028337 -0.881812 0.000000 -0.053887 -0.526063 0.000000 -0.320825 1.734722 0.000000 -2.185220 0.140465 0.000000 -0.022642 -1.007220 0.000000 -2.316415 0.036197 0.000000 -0.727228 1.529052 0.000000 -2.430000 1.446637 0.000000 -1.019242 4.667940 0.000000 -1.231193 4.470000 0.000000 -0.972503 4.290656 0.000000 -2.390380 1.444225 0.000000 -1.148108 1.512922 0.000000 -2.474011 2.423621 0.000000 -1.899572 0.872909 0.000000 -1.012059 1.703360 0.000000 -2.191760 2.106338 0.000000 -1.018178 6.100011 0.000000 -0.889289 6.279567 0.000000 -1.064512 6.338487 0.000000 8.483493 12.666820 0.000000 6.574711 7.521470 0.000000 9.531525 6.885504 0.000000 3.918720 7.012827 0.000000 4.723132 9.486241 0.000000 2.523695 7.343310 0.000000 1.306965 2.433342 0.000000 2.575488 3.679959 0.000000 1.076416 3.574463 0.000000 0.509303 3.371842 0.000000 0.006176 2.788908 0.000000 0.941517 2.864142 0.000000 1.105767 4.870059 0.000000 1.083264 4.868660 0.000000 1.105710 4.836672 0.000000 -0.131906 2.554565 0.000000 -0.103529 2.559242 0.000000 -0.123000 2.582032 0.000000 1.791314 1.370113 0.000000 1.883490 1.586029 0.000000 1.769084 1.758208 0.000000 1.180344 1.371239 0.000000 1.358632 1.582608 0.000000 1.195772 1.616069 0.000000 1.563919 1.636905 0.000000 1.314477 1.236900 0.000000 1.607877 1.472284 0.000000 1.363482 -0.287201 0.000000 1.707947 -0.240154 0.000000 1.367857 -0.120033 0.000000 1.672565 1.275378 0.000000 1.290694 1.187818 0.000000 1.858993 0.752384 0.000000 1.422320 0.764410 0.000000 1.872019 0.776046 0.000000 1.499060 1.286514 0.000000 0.843601 0.304695 0.000000 0.888354 0.257174 0.000000 0.873845 0.274381 0.000000 0.291953 -0.752390 0.000000 0.715287 -0.740976 0.000000 0.638401 0.183721 0.000000 0.135787 -0.778558 0.000000 -0.272080 -0.695430 0.000000 -0.003394 -1.323231 0.000000 0.022766 -0.042228 0.000000 -0.015176 -0.640264 0.000000 -0.051564 -0.077722 0.000000 0.131746 -0.493254 0.000000 -0.075150 -0.541817 0.000000 0.037749 -0.657305 0.000000 -0.413124 0.594487 0.000000 -0.602851 0.404108 0.000000 -0.417712 0.406167 0.000000 -0.346011 -0.525645 0.000000 0.031462 -0.302197 0.000000 -0.314345 0.364086 0.000000 -0.399500 0.257539 0.000000 -0.620572 0.251896 0.000000 -0.370649 0.098362 0.000000 -0.693022 0.268956 0.000000 -0.613681 0.425215 0.000000 -0.755676 0.473110 0.000000 -0.524604 0.455457 0.000000 -0.421689 0.587017 0.000000 -0.510372 0.744696 0.000000 -0.799041 2.278864 0.000000 -1.728112 0.940290 0.000000 -0.172971 1.036149 0.000000 -2.412521 5.394204 0.000000 -2.311558 5.788829 0.000000 -2.601805 5.857876 0.000000 -0.597028 1.744522 0.000000 -1.029169 1.710755 0.000000 -0.717835 1.019641 0.000000 0.826410 3.392928 0.000000 -1.543547 3.615701 0.000000 -0.335966 1.529316 0.000000 -3.571636 5.357115 0.000000 -3.508667 5.438361 0.000000 -3.570873 5.431062 0.000000 -5.038330 11.616881 0.000000 -6.505457 5.504444 0.000000 -3.296752 6.898535 0.000000 -2.632495 7.125237 0.000000 -2.464833 7.201987 0.000000 -2.713331 7.371491 0.000000 -4.089690 5.474105 0.000000 -3.393752 5.545417 0.000000 -4.224471 6.137512 0.000000 1.469952 4.957740 0.000000 2.305149 6.749809 0.000000 0.674872 6.208006 0.000000 1.337302 2.425160 0.000000 2.403383 2.786156 0.000000 1.362498 3.369195 0.000000 0.597852 4.235260 0.000000 -1.050012 2.609817 0.000000 1.058321 1.356301 0.000000 0.771043 1.333056 0.000000 1.250661 1.711846 0.000000 0.459054 2.248928 0.000000 0.929708 1.885235 0.000000 0.630439 1.645519 0.000000 0.983316 1.587294 0.000000 0.656637 1.706157 0.000000 0.590980 1.932521 0.000000 0.613062 1.867557 0.000000 0.488215 1.870444 0.000000 0.739577 1.870344 0.000000 0.648918 1.820955 0.000000 0.659590 1.861976 0.000000 1.134440 1.627094 0.000000 0.563955 1.943534 0.000000 1.494224 1.496732 0.000000 1.170309 1.458940 0.000000 1.379846 1.516224 0.000000 0.828417 1.232413 0.000000 0.913699 1.370598 0.000000 0.624035 1.472658 0.000000 1.367659 1.655189 0.000000 1.221014 1.579074 0.000000 1.094374 1.576158 0.000000 1.766170 0.694916 0.000000 1.694293 1.079223 0.000000 1.675767 1.045823 0.000000 1.667014 0.982345 0.000000 1.830807 1.147701 0.000000 1.672095 1.187494 0.000000 1.185993 1.582384 0.000000 0.546070 0.845639 0.000000 1.399435 0.894400 0.000000 0.620630 0.032112 0.000000 -0.963157 -0.831749 0.000000 0.416992 -0.909888 0.000000 0.236074 0.194405 0.000000 0.132929 0.166332 0.000000 0.212350 0.135110 0.000000 0.105247 0.265353 0.000000 0.193832 0.269609 0.000000 0.109418 0.318059 0.000000 0.631212 1.402381 0.000000 0.051400 0.299254 0.000000 0.427406 0.798107 0.000000 -0.004886 0.930109 0.000000 -0.147851 0.596925 0.000000 -0.014539 0.577782 0.000000 0.142931 0.446397 0.000000 0.015176 0.056815 0.000000 0.020674 0.280291 0.000000 -0.003325 0.031233 0.000000 -0.085885 0.283667 0.000000 0.028735 -0.033040 0.000000 -0.234563 0.634462 0.000000 -0.023459 0.856854 0.000000 -0.318029 0.741552 0.000000 -0.397827 2.092539 0.000000 -0.155606 2.056602 0.000000 -0.674459 2.181834 0.000000 -0.296324 1.473576 0.000000 0.045379 1.469013 0.000000 -0.269080 1.748638 0.000000 -0.739282 0.783344 0.000000 -0.025557 0.841897 0.000000 -0.703327 1.564265 0.000000 -0.954218 0.609450 0.000000 -0.251129 1.497550 0.000000 -0.782899 1.718012 0.000000 -0.415124 2.140203 0.000000 -0.491830 1.811237 0.000000 -0.099440 1.637429 0.000000 -0.903357 2.010594 0.000000 -1.039025 2.289946 0.000000 -0.810452 1.804341 0.000000 -2.112677 4.276145 0.000000 -3.177604 2.501574 0.000000 -1.719287 2.530782 0.000000 -0.370867 2.225664 0.000000 -0.122394 2.489323 0.000000 -0.247045 2.333358 0.000000 -1.262983 2.508074 0.000000 -0.962046 2.557771 0.000000 -1.207373 2.875165 0.000000 -0.453884 0.576063 0.000000 -0.362282 0.723895 0.000000 -0.537634 0.715168 0.000000 -0.839495 1.801013 0.000000 -0.513271 2.209326 0.000000 -0.827701 2.684848 0.000000 -0.895180 1.616795 0.000000 -1.002863 1.594496 0.000000 -0.935721 1.531656 0.000000 -1.382980 2.179629 0.000000 -0.216085 2.688807 0.000000 -1.337471 3.104201 0.000000 -2.424963 5.222645 0.000000 -1.100793 7.372184 0.000000 -3.826083 8.203416 0.000000 6.185921 6.696489 0.000000 6.102744 6.559136 0.000000 6.232534 6.580359 0.000000 4.792477 6.574797 0.000000 5.750856 6.697907 0.000000 4.954091 7.689343 0.000000 1.236854 2.995773 0.000000 1.083768 2.859680 0.000000 1.324304 2.859535 0.000000 2.341747 4.990416 0.000000 2.886261 5.994534 0.000000 1.613934 5.995424 0.000000 -0.094884 2.603238 0.000000 -0.268506 2.456220 0.000000 -0.099646 2.373258 0.000000 1.172409 2.326935 0.000000 0.647538 1.867695 0.000000 1.047001 1.673653 0.000000 0.762956 1.658532 0.000000 0.184607 1.926905 0.000000 0.538364 1.809101 0.000000 0.184946 1.737239 0.000000 0.435956 1.887866 0.000000 0.247228 1.943745 0.000000 0.311845 1.740711 0.000000 0.445403 1.806250 0.000000 0.288168 1.843506 0.000000 0.464065 1.980862 0.000000 0.296356 1.810701 0.000000 0.502306 1.753836 0.000000 0.384776 1.847974 0.000000 0.609280 1.817358 0.000000 0.354950 1.943084 0.000000 0.568750 1.923117 0.000000 0.409644 1.856829 0.000000 0.555568 1.956024 0.000000 0.253274 2.091368 0.000000 0.386222 2.080881 0.000000 0.189023 2.139265 0.000000 0.709044 0.811072 0.000000 0.557361 1.086908 0.000000 0.630029 1.049499 0.000000 -0.062110 1.152253 0.000000 0.313956 1.045195 0.000000 0.130899 1.286886 0.000000 0.731172 1.495342 0.000000 0.626078 1.441672 0.000000 0.596299 1.402215 0.000000 0.464574 1.494486 0.000000 -0.029667 1.134370 0.000000 0.323298 1.138322 0.000000 0.988563 0.870001 0.000000 0.575139 0.806357 0.000000 1.071828 0.660855 0.000000 0.892586 -0.142795 0.000000 1.260934 0.145245 0.000000 0.956240 0.299637 0.000000 0.864011 0.518110 0.000000 0.873060 0.645814 0.000000 1.206196 0.496176 0.000000 0.566782 0.831019 0.000000 0.918672 1.751431 0.000000 0.465347 1.076310 0.000000 0.646008 1.041594 0.000000 0.582263 1.213008 0.000000 0.578712 0.984857 0.000000 0.424386 0.815506 0.000000 0.489060 0.787701 0.000000 0.600769 1.333495 0.000000 -0.051749 0.855020 0.000000 0.007921 0.801343 0.000000 0.048726 0.784162 0.000000 0.442980 0.829826 0.000000 0.461675 0.752050 0.000000 0.230766 0.774688 0.000000 -0.015479 0.388911 0.000000 -0.040024 0.585400 0.000000 0.087356 0.513766 0.000000 -0.044521 0.684172 0.000000 -0.007521 0.788294 0.000000 -0.122482 0.655020 0.000000 -0.326562 2.003232 0.000000 -0.272584 1.768147 0.000000 -0.196130 2.306916 0.000000 -0.194833 1.722545 0.000000 -0.309723 1.476121 0.000000 -0.289490 1.457882 0.000000 -0.102732 1.149280 0.000000 0.030501 1.541997 0.000000 0.075924 1.505247 0.000000 -0.366005 2.086682 0.000000 -0.356294 1.633205 0.000000 -0.343850 2.229190 0.000000 -0.304193 1.744105 0.000000 -0.304880 2.111994 0.000000 -0.453235 1.607887 0.000000 -0.433493 1.688405 0.000000 -0.394527 2.109101 0.000000 -0.472808 1.368083 0.000000 -0.834161 2.130795 0.000000 -0.621734 2.107103 0.000000 -0.748190 2.447899 0.000000 -0.664165 2.772643 0.000000 -0.535362 2.135798 0.000000 -0.579706 2.223279 0.000000 -0.448478 1.776539 0.000000 -0.346024 2.407308 0.000000 -0.367061 2.315792 0.000000 -0.704918 2.012228 0.000000 -0.734428 2.445286 0.000000 -0.928611 2.097215 0.000000 -0.818599 2.314447 0.000000 -0.617093 2.467570 0.000000 -0.950607 2.543164 0.000000 -0.453465 1.343804 0.000000 -0.530125 1.259857 0.000000 -0.528996 1.418571 0.000000 -0.723733 1.463285 0.000000 -0.504639 1.412501 0.000000 -0.712542 1.906300 0.000000 -0.742281 2.053119 0.000000 -0.377895 2.230900 0.000000 -0.580368 2.373370 0.000000 -2.867888 4.511904 0.000000 -2.842644 4.555714 0.000000 -2.889969 4.552833 0.000000 -1.169941 3.165378 0.000000 -1.634488 3.235457 0.000000 -0.887765 2.529460 0.000000 -2.105034 3.765119 0.000000 -1.561976 3.771963 0.000000 -1.767248 3.833856 0.000000 -0.885891 3.096165 0.000000 -1.088135 2.764891 0.000000 -0.734447 2.779863 0.000000 -2.646256 5.169255 0.000000 -2.876558 4.838068 0.000000 -2.518863 4.794554 0.000000 8.264014 7.047026 0.000000 6.755739 5.149544 0.000000 7.985418 5.069442 0.000000 2.584019 3.944426 0.000000 2.920009 4.407431 0.000000 2.401355 4.365199 0.000000 3.780617 4.468623 0.000000 4.209938 4.483732 0.000000 4.050938 4.848465 0.000000 1.982751 3.549895 0.000000 2.891532 3.484712 0.000000 2.323821 4.791363 0.000000 2.638655 4.490770 0.000000 2.151250 3.911600 0.000000 2.702790 3.675869 0.000000 2.366851 4.554174 0.000000 2.017532 4.270831 0.000000 2.305597 4.168761 0.000000 0.391390 2.466086 0.000000 0.472889 2.850839 0.000000 0.394389 2.800806 0.000000 0.472812 2.107675 0.000000 0.281573 1.745339 0.000000 0.597029 1.780427 0.000000 0.641956 2.646097 0.000000 -0.104606 2.858776 0.000000 0.277665 1.742901 0.000000 0.195061 1.785001 0.000000 1.060935 1.819821 0.000000 0.343687 2.779872 0.000000 0.193547 1.749014 0.000000 0.234103 1.753115 0.000000 0.213993 1.713270 0.000000 0.265335 1.731571 0.000000 0.202281 1.797489 0.000000 0.260977 1.732003 0.000000 0.007261 1.751593 0.000000 -0.021131 1.743223 0.000000 0.075641 1.830471 0.000000 0.047590 1.825500 0.000000 -0.064624 1.836834 0.000000 0.044025 1.968855 0.000000 0.037766 2.010271 0.000000 -0.059243 1.937056 0.000000 -0.029941 1.845410 0.000000 -0.142007 1.924205 0.000000 -0.074016 2.041935 0.000000 -0.420336 2.326629 0.000000 -0.385488 2.157799 0.000000 -0.209440 2.181020 0.000000 -0.218876 2.084792 0.000000 -0.634408 0.903561 0.000000 -0.842676 0.677174 0.000000 -0.653871 0.757270 0.000000 -0.302780 2.189825 0.000000 -0.527054 2.500398 0.000000 -0.995121 3.050205 0.000000 -0.796152 2.994554 0.000000 -0.977566 2.882929 0.000000 -0.664693 2.686935 0.000000 -1.016962 3.302482 0.000000 -2.808100 2.138133 0.000000 -0.494621 2.077451 0.000000 1.086507 0.956856 0.000000 1.030741 1.137302 0.000000 1.189339 1.217897 0.000000 -0.107760 -1.295591 0.000000 -0.303312 -1.342611 0.000000 -0.133107 -1.498646 0.000000 1.331579 0.089573 0.000000 0.842494 0.064286 0.000000 1.355480 -0.399808 0.000000 -0.182019 1.810818 0.000000 0.188440 1.783592 0.000000 0.343519 1.128589 0.000000 0.076558 0.926069 0.000000 0.195521 1.211567 0.000000 0.131627 0.973439 0.000000 0.238638 1.239477 0.000000 0.177472 0.912552 0.000000 0.152413 1.337427 0.000000 0.066860 0.745314 0.000000 0.073642 0.638092 0.000000 0.289292 0.831302 0.000000 0.136159 1.016450 0.000000 0.240930 1.011482 0.000000 0.054825 0.766038 0.000000 0.267031 0.707899 0.000000 0.063485 0.731697 0.000000 0.305248 1.016813 0.000000 -0.046913 0.674499 0.000000 0.117506 0.626159 0.000000 -0.166905 0.412839 0.000000 0.024997 1.699969 0.000000 -0.217019 1.182484 0.000000 0.161836 1.965838 0.000000 -0.157700 0.783651 0.000000 0.142378 1.201960 0.000000 -0.090313 0.900866 0.000000 0.073121 1.423241 0.000000 -0.250741 0.877979 0.000000 -0.087261 1.118305 0.000000 -0.114146 1.578332 0.000000 -0.334863 1.249261 0.000000 -0.056611 1.834385 0.000000 -0.337749 1.349098 0.000000 0.032664 1.730898 0.000000 -0.336486 1.204061 0.000000 -0.378252 1.260511 0.000000 -0.229037 1.662471 0.000000 -0.347976 1.292138 0.000000 -0.639597 2.255048 0.000000 -0.576959 1.748832 0.000000 -0.352180 2.173745 0.000000 -0.451991 2.324199 0.000000 -0.706215 1.522092 0.000000 -0.491705 1.879666 0.000000 -0.356205 1.591837 0.000000 -0.288499 2.000771 0.000000 -0.390286 1.736460 0.000000 -0.505336 1.673738 0.000000 -0.793239 2.182567 0.000000 -0.676068 1.961521 0.000000 -0.996476 2.474867 0.000000 -0.889732 2.260184 0.000000 -0.717015 2.326190 0.000000 -0.830527 1.892136 0.000000 -0.815990 2.256724 0.000000 -0.948483 2.395938 0.000000 -0.447838 3.035752 0.000000 -0.895427 3.048511 0.000000 -0.680843 3.254030 0.000000 -0.866985 2.434947 0.000000 -1.116400 2.496240 0.000000 -0.948495 2.379076 0.000000 -0.675307 1.762417 0.000000 -0.649900 2.265197 0.000000 -0.856571 1.371660 0.000000 -0.473054 3.316705 0.000000 -1.029581 2.620653 0.000000 -0.080609 2.430003 0.000000 -0.086526 2.561480 0.000000 0.027413 2.720300 0.000000 -0.163188 2.837326 0.000000 -1.215566 2.419239 0.000000 -0.598111 3.171280 0.000000 -1.486695 3.371184 0.000000 -2.647304 5.658330 0.000000 -2.508805 6.071540 0.000000 -2.941719 6.065478 0.000000 -1.634197 4.017966 0.000000 -0.510281 3.850047 0.000000 -1.081553 4.904255 0.000000 -2.824037 4.600108 0.000000 -3.218142 4.645948 0.000000 -2.995972 4.224468 0.000000 -4.024524 4.939243 0.000000 -4.411491 5.013459 0.000000 -4.459106 4.666034 0.000000 -3.660347 4.472930 0.000000 -3.336947 5.439885 0.000000 -4.087824 5.228256 0.000000 4.499667 6.257286 0.000000 3.076330 4.698609 0.000000 4.584935 4.366363 0.000000 0.995018 3.951560 0.000000 1.445421 4.203082 0.000000 1.089945 4.322786 0.000000 2.257374 4.291192 0.000000 2.404341 4.257475 0.000000 2.267827 4.581740 0.000000 2.201894 4.916222 0.000000 1.827839 5.002271 0.000000 2.058435 4.523078 0.000000 0.041643 2.695000 0.000000 0.970353 3.797087 0.000000 -0.219964 4.305209 0.000000 1.000627 4.662115 0.000000 0.495015 4.248883 0.000000 1.057340 3.999847 0.000000 0.317754 3.915173 0.000000 -0.015982 3.722325 0.000000 0.017406 3.667559 0.000000 0.213005 2.985551 0.000000 -0.135061 3.065216 0.000000 0.028173 2.848622 0.000000 -0.232134 2.835002 0.000000 0.069227 2.899932 0.000000 -0.011612 3.106627 0.000000 0.425887 2.030902 0.000000 0.053814 2.082188 0.000000 0.139989 1.931334 0.000000 -0.079449 1.877387 0.000000 0.180356 1.877013 0.000000 0.030107 2.045619 0.000000 0.125632 1.747699 0.000000 0.125958 1.743785 0.000000 -0.004980 1.756753 0.000000 0.134216 1.784329 0.000000 -0.059315 1.875511 0.000000 0.182571 1.703117 0.000000 -0.012092 1.747852 0.000000 0.085349 1.828877 0.000000 -0.059768 1.865951 0.000000 0.183254 1.719817 0.000000 0.065266 1.763602 0.000000 0.277098 1.745591 0.000000 -0.227899 2.198835 0.000000 0.098272 1.912574 0.000000 -0.061150 1.970093 0.000000 0.246060 1.731634 0.000000 0.070065 1.735727 0.000000 0.195497 1.990120 0.000000 -0.069201 1.939966 0.000000 0.122193 1.902463 0.000000 0.092438 1.768216 0.000000 0.127424 2.012937 0.000000 -0.328082 2.202277 0.000000 -0.178121 2.092049 0.000000 -0.908879 2.704322 0.000000 -0.645283 2.570937 0.000000 -0.916465 3.047174 0.000000 -0.166760 2.103284 0.000000 -0.265752 2.312587 0.000000 -0.544987 2.469290 0.000000 -0.579451 3.005331 0.000000 -0.582382 2.388831 0.000000 -0.494133 2.217842 0.000000 -0.531642 2.158384 0.000000 -0.774878 2.481818 0.000000 0.000047 1.997576 0.000000 -0.888461 1.995673 0.000000 -0.109521 2.712159 0.000000 -0.763934 3.434045 0.000000 0.274067 1.586191 0.000000 -0.151607 1.522375 0.000000 -0.031532 1.673379 0.000000 -0.037740 1.532587 0.000000 0.080961 1.052753 0.000000 -0.272077 1.658855 0.000000 0.149173 1.243378 0.000000 -0.010507 1.418364 0.000000 0.037879 1.260446 0.000000 0.023451 0.777549 0.000000 -0.169754 0.781270 0.000000 0.040191 1.007447 0.000000 -0.085072 0.871974 0.000000 -0.085598 1.104139 0.000000 -0.204144 0.792255 0.000000 0.014497 1.059029 0.000000 -0.197863 0.858535 0.000000 -0.023940 1.031098 0.000000 -0.151515 0.799838 0.000000 0.022244 0.722441 0.000000 -0.191818 0.514523 0.000000 -0.203023 0.361946 0.000000 -0.237308 0.441045 0.000000 0.027750 0.711487 0.000000 -0.351619 0.496683 0.000000 -0.279582 0.437095 0.000000 -0.435827 0.335911 0.000000 -0.435839 0.339061 0.000000 -0.263864 0.410966 0.000000 -0.555310 0.322033 0.000000 0.074783 0.857234 0.000000 -0.355817 0.555732 0.000000 -0.033578 0.725163 0.000000 -0.433547 0.932066 0.000000 -0.015208 1.129538 0.000000 -0.348976 0.901607 0.000000 0.019340 1.319498 0.000000 -0.380637 0.988071 0.000000 0.132187 1.326611 0.000000 -0.381395 1.679041 0.000000 -0.472989 1.186512 0.000000 -0.380978 1.715325 0.000000 -0.334418 1.234091 0.000000 -0.420003 1.027294 0.000000 -0.249717 1.319222 0.000000 -0.440048 1.080028 0.000000 -0.165718 1.398065 0.000000 -0.494912 0.948629 0.000000 -0.737542 1.969424 0.000000 -0.505632 1.365337 0.000000 -0.563729 1.654285 0.000000 -0.434080 1.167676 0.000000 -0.489863 1.710348 0.000000 -0.640942 1.259381 0.000000 -0.593427 1.368667 0.000000 -0.708989 2.019868 0.000000 -0.872063 1.844926 0.000000 -0.996582 2.305318 0.000000 -0.958771 2.240758 0.000000 -0.889390 2.321283 0.000000 -0.884887 2.324690 0.000000 -0.938266 2.270573 0.000000 -0.748077 2.002497 0.000000 -0.790483 1.836657 0.000000 -0.730446 2.014723 0.000000 -0.952439 2.277427 0.000000 -0.492524 2.267517 0.000000 -0.296894 2.464886 0.000000 -0.571538 2.556356 0.000000 -1.025183 2.254549 0.000000 -1.005263 2.445313 0.000000 -1.127697 2.611453 0.000000 -1.209403 1.600501 0.000000 -0.605128 2.203292 0.000000 -1.347319 2.455454 0.000000 -0.378960 3.929002 0.000000 -1.148625 3.235080 0.000000 -0.057890 2.880167 0.000000 -0.503051 2.731685 0.000000 -0.223591 2.905822 0.000000 -0.418015 2.950986 0.000000 -2.262363 4.455066 0.000000 -1.953059 4.974998 0.000000 -2.556306 4.999608 0.000000 -1.045257 2.577668 0.000000 -1.436205 2.592165 0.000000 -1.281714 2.205466 0.000000 -0.394705 2.842969 0.000000 -0.253151 2.808314 0.000000 -0.318733 2.972198 0.000000 -1.744550 4.372869 0.000000 -2.076318 4.265244 0.000000 -1.692117 4.129845 0.000000 -2.365716 4.142444 0.000000 -2.481273 4.078579 0.000000 -2.497443 4.079614 0.000000 -5.756775 4.419284 0.000000 -5.744562 4.405891 0.000000 -5.741509 4.421997 0.000000 -4.133676 4.869380 0.000000 -3.760756 5.406421 0.000000 -4.264090 5.310255 0.000000 6.911403 10.381117 0.000000 4.049352 7.509412 0.000000 6.858275 7.300914