<?xml version='1.0'?>
<VTKFile type='UnstructuredGrid' version='0.1' byte_order='LittleEndian'><UnstructuredGrid>
<Piece NumberOfPoints='3000' NumberOfCells='0'>
<PointData Vectors='principal_stress_direction_1 principal_stress_direction_2 principal_stress_direction_3'>
<DataArray type='Float32' Name='principal_stress_direction_1' NumberOfComponents='3' format='ascii'>
-0.981454 0.191697 0.000000 -0.748747 0.662856 0.000000 -0.383806 -0.923414 0.000000 0.696359 -0.717694 0.000000 0.519639 -0.854386 0.000000 0.504898 -0.863179 0.000000 -0.203628 -0.979048 0.000000 0.515529 -0.856872 0.000000 0.085433 -0.996344 0.000000 -0.582785 -0.812626 0.000000 0.999994 -0.003542 0.000000 0.979045 0.203643 0.000000 0.971087 -0.238724 0.000000 0.030718 0.999528 0.000000 -0.997907 0.064663 0.000000 -0.999754 0.022168 0.000000 -0.789296 0.614013 0.000000 -0.572469 0.819926 0.000000 -0.998544 -0.053947 0.000000 -0.626448 -0.779463 0.000000 -0.914156 -0.405362 0.000000 -0.980340 -0.197314 0.000000 0.933461 -0.358679 0.000000 -0.498326 -0.866990 0.000000 0.748030 -0.663664 0.000000 0.729089 -0.684419 0.000000 0.664395 -0.747382 0.000000 0.433823 -0.900998 0.000000 0.116792 -0.993156 0.000000 0.295732 -0.955271 0.000000 -0.256081 -0.966655 0.000000 -0.015011 -0.999887 0.000000 0.376008 -0.926617 0.000000 -0.684449 -0.729061 0.000000 -0.571954 -0.820286 0.000000 -0.432486 -0.901641 0.000000 0.552492 -0.833518 0.000000 -0.826220 -0.563347 0.000000 -0.963618 0.267283 0.000000 0.951216 -0.308526 0.000000 0.386950 0.922101 0.000000 -0.697437 0.716646 0.000000 -0.992470 0.122484 0.000000 0.733261 0.679948 0.000000 0.619972 0.784624 0.000000 -0.821994 0.569497 0.000000 0.509488 -0.860478 0.000000 -0.544046 -0.839056 0.000000 0.937211 -0.348762 0.000000 -0.972483 -0.232972 0.000000 0.843134 -0.537703 0.000000 0.461014 -0.887393 0.000000 0.998305 -0.058196 0.000000 0.852163 -0.523276 0.000000 0.900331 -0.435206 0.000000 0.990978 -0.134027 0.000000 0.848048 -0.529919 0.000000 0.761554 -0.648102 0.000000 0.447140 -0.894464 0.000000 0.133862 -0.991000 0.000000 -0.753025 -0.657992 0.000000 0.762761 -0.646681 0.000000 0.213036 -0.977044 0.000000 -0.557021 -0.830499 0.000000 0.030364 -0.999539 0.000000 0.006214 -0.999981 0.000000 -0.708654 -0.705556 0.000000 -0.864329 -0.502928 0.000000 -0.476616 -0.879111 0.000000 -0.834017 -0.551738 0.000000 -0.914432 -0.404741 0.000000 -0.972614 -0.232426 0.000000 -0.989724 -0.142988 0.000000 -0.923121 0.384510 0.000000 -0.895648 -0.444764 0.000000 0.868677 0.495378 0.000000 -0.534511 -0.845162 0.000000 0.456966 -0.889484 0.000000 0.980020 -0.198900 0.000000 -0.704018 -0.710182 0.000000 0.827969 0.560774 0.000000 -0.788166 0.615463 0.000000 0.949999 0.312253 0.000000 -0.165010 0.986292 0.000000 0.363696 0.931518 0.000000 -0.849841 0.527039 0.000000 0.836763 -0.547565 0.000000 -0.997107 -0.076009 0.000000 0.971401 -0.237443 0.000000 0.839263 -0.543726 0.000000 -0.988242 -0.152896 0.000000 -0.979687 -0.200532 0.000000 0.857714 -0.514127 0.000000 0.937098 -0.349067 0.000000 0.768966 -0.639289 0.000000 0.775433 -0.631430 0.000000 0.745375 -0.666646 0.000000 0.808114 -0.589026 0.000000 0.324984 -0.945719 0.000000 0.581256 -0.813721 0.000000 0.637964 -0.770066 0.000000 0.450228 -0.892914 0.000000 -0.056815 -0.998385 0.000000 -0.072180 -0.997392 0.000000 0.301813 -0.953367 0.000000 0.157442 -0.987528 0.000000 -0.211315 -0.977418 0.000000 0.652431 -0.757848 0.000000 -0.289150 -0.957284 0.000000 -0.998436 -0.055913 0.000000 -0.250441 -0.968132 0.000000 -0.891891 -0.452251 0.000000 -0.911530 -0.411234 0.000000 -0.571154 -0.820843 0.000000 -0.342955 0.939352 0.000000 -0.999653 -0.026359 0.000000 -0.344618 -0.938743 0.000000 -0.938622 0.344949 0.000000 -0.703786 -0.710412 0.000000 -0.739967 -0.672643 0.000000 -0.525824 -0.850593 0.000000 -0.248127 0.968727 0.000000 -0.999852 -0.017184 0.000000 -0.529805 -0.848120 0.000000 0.026707 0.999643 0.000000 -0.969927 -0.243397 0.000000 -0.833201 -0.552971 0.000000 -0.864968 0.501827 0.000000 0.883745 -0.467969 0.000000 -0.275678 0.961250 0.000000 -0.980542 -0.196312 0.000000 0.856059 -0.516879 0.000000 0.986054 -0.166425 0.000000 0.964665 -0.263481 0.000000 -0.767135 -0.641486 0.000000 0.837525 -0.546399 0.000000 0.143114 0.989706 0.000000 -0.980030 -0.198848 0.000000 0.834312 -0.551292 0.000000 -0.002287 0.999997 0.000000 -0.992036 -0.125958 0.000000 0.685669 -0.727913 0.000000 0.941556 -0.336857 0.000000 0.636333 -0.771415 0.000000 0.925819 -0.377967 0.000000 -0.987275 -0.159020 0.000000 0.178107 -0.984011 0.000000 0.319604 -0.947551 0.000000 0.377315 -0.926085 0.000000 0.929360 -0.369175 0.000000 0.525621 -0.850719 0.000000 0.714121 -0.700023 0.000000 -0.025429 -0.999677 0.000000 0.057684 -0.998335 0.000000 -0.201986 -0.979388 0.000000 0.003785 -0.999993 0.000000 0.055015 -0.998486 0.000000 -0.031575 -0.999501 0.000000 -0.389306 -0.921109 0.000000 -0.002843 -0.999996 0.000000 -0.382619 -0.923906 0.000000 -0.866043 -0.499970 0.000000 -0.827208 -0.561896 0.000000 -0.740525 -0.672029 0.000000 -0.919685 -0.392658 0.000000 -0.881252 -0.472646 0.000000 -0.841018 -0.541006 0.000000 0.061090 -0.998132 0.000000 -0.234340 -0.972155 0.000000 -0.999524 -0.030856 0.000000 -0.931952 -0.362581 0.000000 -0.999633 -0.027108 0.000000 -0.510896 -0.859643 0.000000 -0.636914 -0.770934 0.000000 0.859781 -0.510663 0.000000 -0.912434 0.409225 0.000000 0.839982 0.542615 0.000000 0.801612 0.597845 0.000000 -0.986396 0.164386 0.000000 0.929893 0.367831 0.000000 -0.979616 0.200880 0.000000 -0.876310 0.481748 0.000000 -0.747899 0.663812 0.000000 0.958252 0.285926 0.000000 0.511446 -0.859315 0.000000 0.999998 -0.002094 0.000000 0.403834 -0.914832 0.000000 0.297980 -0.954572 0.000000 0.883162 -0.469069 0.000000 0.770763 -0.637122 0.000000 0.967176 -0.254107 0.000000 0.987360 -0.158493 0.000000 0.954912 -0.296888 0.000000 0.953749 -0.300604 0.000000 -0.997979 -0.063543 0.000000 0.933410 -0.358813 0.000000 0.790599 -0.612334 0.000000 0.493921 -0.869507 0.000000 0.884455 -0.466626 0.000000 0.479114 -0.877753 0.000000 0.918722 -0.394905 0.000000 0.290863 -0.956765 0.000000 0.177823 -0.984063 0.000000 0.519490 -0.854476 0.000000 0.570518 -0.821285 0.000000 0.035120 -0.999383 0.000000 0.682663 -0.730733 0.000000 0.202685 -0.979244 0.000000 -0.373155 -0.927769 0.000000 -0.028344 -0.999598 0.000000 0.123650 -0.992326 0.000000 0.264868 -0.964285 0.000000 -0.293991 -0.955808 0.000000 -0.683643 -0.729816 0.000000 0.305812 -0.952092 0.000000 -0.492935 -0.870066 0.000000 -0.642107 -0.766615 0.000000 -0.987786 -0.155817 0.000000 -0.825617 -0.564231 0.000000 -0.995547 -0.094266 0.000000 -0.524034 -0.851697 0.000000 -0.929335 -0.369237 0.000000 0.980725 -0.195395 0.000000 -0.426527 -0.904475 0.000000 0.145453 -0.989365 0.000000 -0.985486 -0.169759 0.000000 0.969835 0.243760 0.000000 -0.849596 -0.527435 0.000000 -0.746275 -0.665638 0.000000 -0.758999 -0.651092 0.000000 0.483184 0.875519 0.000000 0.725943 -0.687754 0.000000 0.676834 0.736136 0.000000 -0.403915 -0.914797 0.000000 -0.714979 0.699146 0.000000 0.994123 0.108258 0.000000 0.083771 -0.996485 0.000000 0.821382 0.570378 0.000000 -0.739452 0.673210 0.000000 -0.738379 0.674386 0.000000 0.592611 -0.805489 0.000000 -0.705198 -0.709011 0.000000 -0.875919 0.482458 0.000000 0.856199 -0.516647 0.000000 0.688572 -0.725168 0.000000 0.991942 0.126691 0.000000 0.558735 -0.829346 0.000000 0.902199 -0.431319 0.000000 -0.508955 0.860793 0.000000 -0.989794 0.142502 0.000000 0.675713 -0.737165 0.000000 0.578180 -0.815909 0.000000 0.969169 -0.246397 0.000000 -0.988322 -0.152378 0.000000 0.775184 -0.631736 0.000000 -0.055801 -0.998442 0.000000 0.995981 -0.089561 0.000000 -0.960055 -0.279811 0.000000 0.762651 -0.646810 0.000000 0.947040 -0.321117 0.000000 -0.603502 0.797362 0.000000 0.458265 -0.888816 0.000000 0.778222 -0.627990 0.000000 0.330198 -0.943912 0.000000 0.490150 -0.871638 0.000000 0.215173 -0.976576 0.000000 0.468968 -0.883215 0.000000 0.153315 -0.988177 0.000000 -0.016886 -0.999857 0.000000 -0.004780 -0.999989 0.000000 0.019305 -0.999814 0.000000 -0.251531 -0.967849 0.000000 -0.309887 -0.950774 0.000000 -0.525458 -0.850820 0.000000 -0.269491 -0.963003 0.000000 -0.626402 -0.779501 0.000000 -0.908483 -0.417922 0.000000 -0.228934 -0.973442 0.000000 -0.930497 -0.366300 0.000000 -0.871918 -0.489652 0.000000 -0.536862 -0.843670 0.000000 -0.907476 -0.420104 0.000000 -0.980179 -0.198114 0.000000 -0.786965 -0.616998 0.000000 -0.346575 -0.938022 0.000000 -0.752381 -0.658728 0.000000 -0.620104 -0.784520 0.000000 -0.902207 -0.431303 0.000000 -0.946318 -0.323237 0.000000 -0.749355 0.662168 0.000000 -0.948297 -0.317383 0.000000 -0.512205 -0.858863 0.000000 -0.460297 0.887765 0.000000 0.990750 -0.135697 0.000000 0.114842 0.993384 0.000000 -0.999058 0.043387 0.000000 -0.318307 -0.947988 0.000000 0.348599 -0.937272 0.000000 0.999861 -0.016650 0.000000 0.524836 0.851203 0.000000 -0.488754 0.872422 0.000000 -0.450501 0.892776 0.000000 0.852288 -0.523073 0.000000 -0.123393 0.992358 0.000000 0.999975 0.007018 0.000000 0.699417 -0.714714 0.000000 0.138853 0.990313 0.000000 0.387331 0.921941 0.000000 0.521042 -0.853531 0.000000 0.968920 -0.247373 0.000000 0.507072 -0.861904 0.000000 0.999587 -0.028749 0.000000 0.719942 -0.694034 0.000000 0.986451 -0.164056 0.000000 0.494210 -0.869342 0.000000 -0.401184 -0.915998 0.000000 0.785632 0.618694 0.000000 -0.695430 -0.718593 0.000000 0.407199 0.913340 0.000000 -0.395142 -0.918620 0.000000 -0.891439 -0.453142 0.000000 -0.276928 0.960891 0.000000 -0.530337 0.847787 0.000000 0.842105 -0.539314 0.000000 0.799049 -0.601266 0.000000 0.201959 -0.979394 0.000000 -0.657249 -0.753674 0.000000 0.646150 -0.763210 0.000000 0.524765 -0.851247 0.000000 0.546016 -0.837774 0.000000 -0.058197 -0.998305 0.000000 -0.021102 -0.999777 0.000000 0.171506 -0.985183 0.000000 0.093977 -0.995574 0.000000 -0.049866 -0.998756 0.000000 -0.224302 -0.974520 0.000000 -0.143065 -0.989713 0.000000 0.174792 -0.984605 0.000000 -0.460494 -0.887663 0.000000 -0.699230 -0.714897 0.000000 -0.402449 -0.915442 0.000000 -0.891475 -0.453069 0.000000 -0.715257 -0.698862 0.000000 0.028944 -0.999581 0.000000 0.756438 -0.654065 0.000000 -0.749942 -0.661504 0.000000 -0.808982 -0.587834 0.000000 -0.607580 -0.794259 0.000000 -0.999113 -0.042112 0.000000 -0.556046 -0.831151 0.000000 -0.840883 -0.541216 0.000000 0.415290 -0.909689 0.000000 -0.961512 -0.274761 0.000000 0.885389 0.464850 0.000000 0.994444 -0.105269 0.000000 0.043148 0.999069 0.000000 -0.730498 -0.682915 0.000000 -0.806934 -0.590641 0.000000 0.323994 0.946059 0.000000 0.998809 -0.048800 0.000000 -0.336827 0.941567 0.000000 -0.953502 -0.301386 0.000000 -0.684110 -0.729379 0.000000 -0.658836 0.752287 0.000000 -0.298050 -0.954550 0.000000 0.606535 0.795057 0.000000 -0.354949 0.934886 0.000000 -0.497732 0.867331 0.000000 0.381270 0.924464 0.000000 -0.740171 0.672419 0.000000 -0.204433 0.978881 0.000000 0.923752 -0.382991 0.000000 0.733506 0.679683 0.000000 0.428988 0.903310 0.000000 0.155801 -0.987789 0.000000 -0.869624 0.493714 0.000000 0.489741 0.871868 0.000000 0.067119 -0.997745 0.000000 0.667149 0.744924 0.000000 -0.792700 -0.609611 0.000000 -0.975241 -0.221144 0.000000 0.533293 -0.845930 0.000000 0.986248 -0.165270 0.000000 0.999640 0.026816 0.000000 -0.123765 -0.992312 0.000000 -0.718145 -0.695894 0.000000 -0.644832 -0.764324 0.000000 -0.893931 -0.448205 0.000000 -0.629587 -0.776930 0.000000 -0.038743 0.999249 0.000000 -0.633402 -0.773823 0.000000 -0.303448 -0.952848 0.000000 0.861993 -0.506921 0.000000 0.422266 -0.906472 0.000000 0.527036 -0.849843 0.000000 0.303301 -0.952895 0.000000 0.365706 -0.930730 0.000000 -0.956653 -0.291229 0.000000 -0.165181 -0.986263 0.000000 0.364581 -0.931172 0.000000 0.431198 -0.902258 0.000000 0.103261 -0.994654 0.000000 -0.334500 -0.942396 0.000000 0.107293 -0.994227 0.000000 -0.645190 -0.764022 0.000000 -0.264457 -0.964397 0.000000 0.031469 -0.999505 0.000000 -0.866604 -0.498997 0.000000 -0.277003 -0.960869 0.000000 -0.286632 -0.958041 0.000000 0.978704 -0.205277 0.000000 -0.156375 -0.987698 0.000000 -0.847585 -0.530660 0.000000 -0.936567 -0.350490 0.000000 -0.999962 -0.008757 0.000000 0.690982 -0.722872 0.000000 -0.478311 -0.878190 0.000000 -0.882108 -0.471047 0.000000 -0.893244 -0.449573 0.000000 -0.322010 0.946736 0.000000 -0.720553 0.693400 0.000000 -0.394949 -0.918703 0.000000 0.780763 0.624827 0.000000 -0.966399 -0.257046 0.000000 0.998378 -0.056931 0.000000 0.930829 -0.365455 0.000000 -0.890424 -0.455132 0.000000 -0.687330 0.726345 0.000000 -0.015902 0.999874 0.000000 0.518673 0.854972 0.000000 -0.497438 -0.867500 0.000000 -0.644778 -0.764370 0.000000 -0.745647 0.666341 0.000000 -0.250434 -0.968134 0.000000 0.967422 0.253171 0.000000 0.447400 0.894334 0.000000 -0.466931 -0.884294 0.000000 -0.759368 0.650661 0.000000 0.383997 0.923334 0.000000 -0.717754 0.696297 0.000000 -0.366487 -0.930423 0.000000 0.970956 -0.239259 0.000000 -0.996295 -0.086007 0.000000 0.932611 -0.360884 0.000000 0.155679 -0.987808 0.000000 0.467209 -0.884147 0.000000 -0.232561 -0.972582 0.000000 0.824024 -0.566555 0.000000 0.330839 -0.943687 0.000000 0.240873 0.970557 0.000000 0.601386 0.798959 0.000000 -0.807344 -0.590081 0.000000 0.127002 -0.991902 0.000000 0.867087 -0.498157 0.000000 0.125443 -0.992101 0.000000 0.999734 -0.023050 0.000000 -0.153245 -0.988188 0.000000 -0.635543 -0.772066 0.000000 -0.794742 -0.606947 0.000000 0.417525 0.908665 0.000000 -0.219560 -0.975599 0.000000 0.647506 -0.762061 0.000000 -0.809481 -0.587147 0.000000 -0.948655 -0.316313 0.000000 0.249329 -0.968419 0.000000 0.772871 -0.634564 0.000000 -0.772942 -0.634476 0.000000 -0.387935 -0.921687 0.000000 0.999161 0.040964 0.000000 0.045921 -0.998945 0.000000 0.556031 -0.831161 0.000000 -0.507307 -0.861765 0.000000 0.219624 -0.975585 0.000000 0.262452 -0.964945 0.000000 0.465749 -0.884917 0.000000 0.806987 -0.590569 0.000000 -0.411716 -0.911312 0.000000 -0.319064 -0.947733 0.000000 -0.386932 -0.922108 0.000000 -0.069919 -0.997553 0.000000 0.339128 -0.940740 0.000000 -0.756063 -0.654499 0.000000 -0.514215 -0.857661 0.000000 -0.979694 -0.200499 0.000000 0.993268 -0.115840 0.000000 -0.846169 -0.532914 0.000000 -0.967105 -0.254379 0.000000 -0.935672 -0.352872 0.000000 0.991006 -0.133814 0.000000 0.962954 0.269667 0.000000 0.413876 0.910333 0.000000 -0.892281 0.451480 0.000000 -0.903296 -0.429017 0.000000 -0.893119 -0.449820 0.000000 -0.994593 -0.103847 0.000000 -0.971076 -0.238771 0.000000 0.997912 -0.064588 0.000000 -0.806141 0.591723 0.000000 -0.723737 -0.690076 0.000000 -0.999078 0.042937 0.000000 -0.389301 0.921111 0.000000 -0.807830 -0.589415 0.000000 0.311544 -0.950232 0.000000 0.928810 0.370556 0.000000 -0.022065 -0.999757 0.000000 0.299594 0.954067 0.000000 0.665569 0.746337 0.000000 -0.125573 0.992084 0.000000 -0.398180 -0.917308 0.000000 -0.925656 0.378366 0.000000 -0.719896 0.694082 0.000000 0.453376 -0.891320 0.000000 -0.233713 0.972306 0.000000 -0.362215 -0.932095 0.000000 -0.871448 0.490487 0.000000 0.920378 0.391029 0.000000 -0.921441 0.388518 0.000000 -0.525383 0.850866 0.000000 -0.489272 -0.872131 0.000000 0.625111 0.780536 0.000000 0.883874 0.467725 0.000000 -0.415403 -0.909637 0.000000 0.764105 0.645091 0.000000 0.725420 -0.688306 0.000000 0.414341 -0.910122 0.000000 -0.529524 0.848295 0.000000 0.076440 -0.997074 0.000000 -0.802262 -0.596972 0.000000 -0.029643 -0.999561 0.000000 -0.560092 0.828431 0.000000 -0.530872 0.847452 0.000000 -0.928926 0.370266 0.000000 0.440061 0.897968 0.000000 0.481824 -0.876268 0.000000 0.987706 -0.156320 0.000000 0.143547 -0.989643 0.000000 -0.893354 -0.449354 0.000000 0.544359 0.838852 0.000000 -0.043650 -0.999047 0.000000 0.208336 0.978057 0.000000 -0.951623 0.307269 0.000000 -0.220733 -0.975334 0.000000 -0.905829 -0.423644 0.000000 0.616168 -0.787615 0.000000 -0.323601 -0.946194 0.000000 0.133460 -0.991054 0.000000 -0.262737 -0.964867 0.000000 0.299874 -0.953979 0.000000 0.149755 -0.988723 0.000000 -0.858099 -0.513484 0.000000 -0.362330 -0.932050 0.000000 -0.863056 -0.505108 0.000000 0.763402 -0.645924 0.000000 -0.178180 -0.983998 0.000000 -0.773712 -0.633537 0.000000 -0.540085 -0.841611 0.000000 -0.852054 -0.523455 0.000000 -0.709671 -0.704534 0.000000 -0.623051 -0.782181 0.000000 -0.836994 -0.547213 0.000000 -0.814850 -0.579672 0.000000 -0.841568 -0.540151 0.000000 -0.476328 0.879268 0.000000 -0.511746 -0.859137 0.000000 -0.999992 -0.003974 0.000000 -0.256366 -0.966580 0.000000 -0.534967 -0.844873 0.000000 -0.728489 -0.685058 0.000000 -0.247785 -0.968815 0.000000 -0.510928 -0.859624 0.000000 0.999566 -0.029449 0.000000 -0.813693 0.581295 0.000000 -0.886619 0.462501 0.000000 -0.137235 0.990539 0.000000 0.906389 -0.422444 0.000000 0.480127 -0.877199 0.000000 0.346693 0.937979 0.000000 -0.787393 -0.616452 0.000000 0.275661 0.961255 0.000000 0.153570 0.988138 0.000000 0.833447 0.552599 0.000000 -0.589086 -0.808070 0.000000 0.707943 0.706270 0.000000 0.724665 -0.689101 0.000000 0.996250 0.086525 0.000000 -0.924727 0.380631 0.000000 0.097404 -0.995245 0.000000 0.578848 -0.815436 0.000000 -0.999758 -0.022007 0.000000 0.169616 -0.985510 0.000000 0.891071 -0.453865 0.000000 -0.953901 0.300123 0.000000 0.650532 0.759479 0.000000 -0.381918 0.924196 0.000000 0.999006 0.044570 0.000000 -0.673040 0.739606 0.000000 -0.998855 -0.047831 0.000000 -0.290244 -0.956953 0.000000 0.470657 -0.882316 0.000000 0.639143 -0.769088 0.000000 0.994505 -0.104686 0.000000 0.864742 -0.502216 0.000000 -0.055862 -0.998438 0.000000 -0.810945 -0.585122 0.000000 -0.994050 -0.108924 0.000000 0.860603 -0.509276 0.000000 -0.868200 -0.496214 0.000000 -0.955994 -0.293386 0.000000 0.949918 -0.312498 0.000000 0.968643 -0.248457 0.000000 -0.109800 -0.993954 0.000000 0.801154 -0.598458 0.000000 0.175597 0.984462 0.000000 0.885635 0.464381 0.000000 0.905775 -0.423759 0.000000 0.353849 -0.935303 0.000000 -0.709627 -0.704578 0.000000 0.004671 -0.999989 0.000000 0.763082 -0.646302 0.000000 0.183156 -0.983084 0.000000 -0.441040 -0.897488 0.000000 -0.690415 -0.723414 0.000000 0.073043 -0.997329 0.000000 -0.998362 -0.057219 0.000000 -0.257151 -0.966371 0.000000 -0.257828 -0.966191 0.000000 0.972928 -0.231106 0.000000 -0.980701 0.195514 0.000000 -0.433369 -0.901217 0.000000 -0.325377 -0.945584 0.000000 -0.465452 -0.885073 0.000000 0.434343 -0.900747 0.000000 -0.650872 -0.759187 0.000000 -0.997804 -0.066232 0.000000 -0.985924 -0.167196 0.000000 0.965641 -0.259879 0.000000 -0.490593 -0.871389 0.000000 0.020045 -0.999799 0.000000 -0.300362 -0.953825 0.000000 -0.710083 -0.704118 0.000000 -0.554013 -0.832508 0.000000 -0.751711 -0.659492 0.000000 -0.811729 -0.584034 0.000000 -0.860286 -0.509812 0.000000 0.370577 -0.928802 0.000000 -0.045787 -0.998951 0.000000 -0.452872 0.891575 0.000000 -0.975530 0.219867 0.000000 -0.983477 -0.181033 0.000000 -0.023818 -0.999716 0.000000 -0.382703 0.923871 0.000000 0.802535 0.596605 0.000000 0.499573 -0.866272 0.000000 0.997735 0.067270 0.000000 -0.809720 0.586816 0.000000 -0.994417 0.105526 0.000000 0.144288 0.989536 0.000000 -0.232652 0.972560 0.000000 0.793951 0.607982 0.000000 0.896195 -0.443660 0.000000 0.225517 0.974239 0.000000 0.772435 -0.635094 0.000000 -0.607720 0.794152 0.000000 -0.767302 0.641285 0.000000 0.627904 0.778291 0.000000 -0.771631 0.636070 0.000000 0.413027 0.910719 0.000000 0.992810 0.119705 0.000000 0.963601 -0.267346 0.000000 0.645286 -0.763941 0.000000 -0.603102 -0.797664 0.000000 -0.054268 0.998526 0.000000 0.217028 -0.976165 0.000000 0.049369 0.998781 0.000000 -0.820858 -0.571132 0.000000 0.864240 -0.503080 0.000000 0.916128 -0.400886 0.000000 0.995773 -0.091854 0.000000 -0.277011 0.960867 0.000000 -0.957499 -0.288436 0.000000 -0.997222 -0.074484 0.000000 0.726987 -0.686651 0.000000 0.991977 -0.126418 0.000000 0.441009 -0.897503 0.000000 -0.999777 -0.021120 0.000000 -0.117214 0.993107 0.000000 -0.553529 -0.832830 0.000000 -0.985964 0.166959 0.000000 0.293825 -0.955859 0.000000 -0.518006 0.855377 0.000000 0.991089 0.133201 0.000000 -0.852519 -0.522697 0.000000 0.858271 -0.513197 0.000000 0.495420 -0.868654 0.000000 0.624512 -0.781015 0.000000 0.194389 -0.980925 0.000000 0.859932 0.510409 0.000000 0.985421 0.170135 0.000000 0.991015 -0.133752 0.000000 0.734582 -0.678520 0.000000 0.677275 -0.735730 0.000000 -0.999746 -0.022545 0.000000 -0.856363 -0.516374 0.000000 -0.708548 -0.705662 0.000000 -0.657881 -0.753122 0.000000 0.985381 -0.170364 0.000000 -0.864567 -0.502518 0.000000 -0.934974 -0.354715 0.000000 0.999493 -0.031843 0.000000 0.971419 -0.237372 0.000000 0.828269 -0.560330 0.000000 -0.884385 0.466758 0.000000 -0.932605 0.360899 0.000000 -0.279664 0.960098 0.000000 0.488661 -0.872474 0.000000 0.766020 -0.642817 0.000000 0.726041 0.687651 0.000000 -0.958810 -0.284049 0.000000 -0.811372 -0.584530 0.000000 0.790578 0.612361 0.000000 -0.601620 -0.798782 0.000000 -0.240596 -0.970625 0.000000 -0.761207 0.648509 0.000000 -0.987704 -0.156335 0.000000 -0.500648 -0.865651 0.000000 0.806257 0.591566 0.000000 -0.454246 -0.890876 0.000000 -0.620739 0.784017 0.000000 -0.655816 0.754920 0.000000 -0.713490 -0.700665 0.000000 0.833760 0.552126 0.000000 0.952059 -0.305915 0.000000 0.267504 0.963557 0.000000 0.554384 0.832261 0.000000 -0.710147 0.704053 0.000000 -0.968094 -0.250588 0.000000 0.844617 0.535371 0.000000 0.883773 -0.467915 0.000000 -0.284107 0.958793 0.000000 0.468723 0.883345 0.000000 -0.439889 0.898052 0.000000 0.814156 0.580647 0.000000 0.137821 0.990457 0.000000 -0.669717 0.742617 0.000000 -0.867457 0.497512 0.000000 0.606926 0.794758 0.000000 0.559968 0.828514 0.000000 -0.157414 -0.987533 0.000000 0.002379 -0.999997 0.000000 0.734175 -0.678960 0.000000 0.997400 0.072069 0.000000 -0.621351 0.783532 0.000000 -0.962143 -0.272546 0.000000 -0.999845 -0.017633 0.000000 0.269419 -0.963023 0.000000 0.968050 -0.250759 0.000000 -0.950399 -0.311033 0.000000 0.941370 -0.337376 0.000000 0.307602 -0.951515 0.000000 0.828270 -0.560329 0.000000 0.829453 -0.558577 0.000000 0.772530 -0.634978 0.000000 0.997491 -0.070796 0.000000 0.406989 -0.913433 0.000000 0.930501 -0.366289 0.000000 0.968163 0.250320 0.000000 0.992686 0.120724 0.000000 0.872467 0.488672 0.000000 -0.988531 -0.151016 0.000000 0.034272 -0.999413 0.000000 0.936726 -0.350064 0.000000 -0.999612 -0.027867 0.000000 0.730896 -0.682488 0.000000 0.986393 -0.164407 0.000000 0.758757 -0.651374 0.000000 -0.789370 -0.613918 0.000000 0.719512 0.694480 0.000000 -0.893757 -0.448551 0.000000 -0.868110 0.496372 0.000000 -0.566424 -0.824114 0.000000 0.936669 -0.350217 0.000000 0.996778 -0.080215 0.000000 0.984438 -0.175731 0.000000 0.334477 -0.942404 0.000000 -0.989763 -0.142722 0.000000 0.986197 -0.165573 0.000000 0.115041 -0.993361 0.000000 0.895245 -0.445574 0.000000 -0.779572 -0.626313 0.000000 -0.999855 -0.017038 0.000000 -0.808736 -0.588171 0.000000 0.624842 -0.780752 0.000000 -0.344980 -0.938610 0.000000 0.385326 -0.922780 0.000000 0.967008 -0.254746 0.000000 0.327269 -0.944931 0.000000 0.913481 0.406882 0.000000 0.891227 -0.453558 0.000000 0.083251 0.996529 0.000000 -0.657242 -0.753680 0.000000 0.770503 0.637437 0.000000 -0.944902 -0.327355 0.000000 -0.126800 0.991928 0.000000 0.978425 0.206604 0.000000 -0.324573 0.945861 0.000000 0.763305 0.646039 0.000000 -0.981992 0.188922 0.000000 0.678927 0.734206 0.000000 0.915033 -0.403380 0.000000 -0.658101 -0.752929 0.000000 -0.614346 0.789037 0.000000 0.794765 0.606917 0.000000 -0.498372 0.866963 0.000000 0.413064 0.910702 0.000000 -0.999801 0.019956 0.000000 -0.087937 0.996126 0.000000 -0.996324 0.085670 0.000000 -0.473099 0.881009 0.000000 -0.824826 0.565387 0.000000 0.063626 -0.997974 0.000000 0.567371 0.823462 0.000000 -0.998785 0.049271 0.000000 0.992543 0.121898 0.000000 0.678789 -0.734334 0.000000 -0.734146 0.678992 0.000000 0.332571 -0.943078 0.000000 0.713629 -0.700524 0.000000 0.770109 -0.637913 0.000000 0.996007 -0.089271 0.000000 -0.532778 -0.846255 0.000000 -0.825917 -0.563792 0.000000 -0.268195 -0.963365 0.000000 0.024680 -0.999695 0.000000 0.908914 -0.416983 0.000000 -0.985891 -0.167389 0.000000 -0.559009 -0.829161 0.000000 0.887479 -0.460848 0.000000 0.991289 -0.131708 0.000000 0.983635 -0.180172 0.000000 0.918761 0.394813 0.000000 -0.577418 0.816449 0.000000 0.812272 0.583278 0.000000 0.102617 0.994721 0.000000 -0.859712 -0.510779 0.000000 -0.629192 0.777250 0.000000 0.633964 -0.773362 0.000000 -0.012847 0.999917 0.000000 0.921514 -0.388346 0.000000 0.989879 -0.141911 0.000000 -0.999470 -0.032562 0.000000 0.920097 -0.391690 0.000000 0.422047 -0.906574 0.000000 0.646878 -0.762594 0.000000 0.679043 -0.734098 0.000000 -0.901276 -0.433245 0.000000 0.998200 -0.059967 0.000000 0.884413 -0.466705 0.000000 0.949508 -0.313743 0.000000 -0.967969 -0.251072 0.000000 -0.062137 -0.998068 0.000000 0.720801 0.693142 0.000000 0.862946 -0.505297 0.000000 0.824124 -0.566409 0.000000 -0.844355 -0.535785 0.000000 -0.768737 -0.639565 0.000000 -0.881653 -0.471898 0.000000 -0.505121 0.863048 0.000000 -0.282990 -0.959123 0.000000 -0.896666 -0.442707 0.000000 0.124493 -0.992220 0.000000 0.790485 -0.612481 0.000000 -0.638994 -0.769211 0.000000 0.845857 -0.533409 0.000000 0.966461 -0.256814 0.000000 0.999059 -0.043380 0.000000 0.993689 -0.112169 0.000000 -0.958893 -0.283767 0.000000 -0.835810 -0.549019 0.000000 -0.483307 0.875451 0.000000 0.757907 -0.652363 0.000000 -0.703124 0.711067 0.000000 0.018266 -0.999833 0.000000 0.154933 0.987925 0.000000 -0.693825 -0.720143 0.000000 -0.666810 -0.745228 0.000000 -0.014820 -0.999890 0.000000 0.553220 0.833035 0.000000 -0.640661 0.767824 0.000000 -0.313672 0.949531 0.000000 0.255000 0.966941 0.000000 0.017980 0.999838 0.000000 -0.168329 0.985731 0.000000 -0.592306 0.805713 0.000000 0.302173 0.953253 0.000000 0.159943 0.987126 0.000000 0.768424 0.639941 0.000000 -0.283621 -0.958936 0.000000 -0.545123 0.838356 0.000000 -0.989438 0.144959 0.000000 -0.589092 0.808066 0.000000 0.817066 0.576544 0.000000 0.524111 0.851650 0.000000 -0.765819 0.643057 0.000000 0.613199 0.789928 0.000000 0.663904 -0.747818 0.000000 0.226551 0.973999 0.000000 -0.085255 0.996359 0.000000 -0.603966 -0.797010 0.000000 0.087977 -0.996123 0.000000 -0.413698 0.910414 0.000000 0.559787 0.828636 0.000000 -0.968510 -0.248974 0.000000 0.455437 0.890268 0.000000 -0.673255 -0.739411 0.000000 0.845496 -0.533982 0.000000 0.327491 -0.944854 0.000000 0.971089 -0.238717 0.000000 0.824149 -0.566374 0.000000 0.764287 -0.644876 0.000000 -0.685858 -0.727735 0.000000 -0.858054 -0.513559 0.000000 -0.965119 0.261810 0.000000 0.952590 -0.304256 0.000000 -0.681324 0.731982 0.000000 0.976824 0.214045 0.000000 0.271807 0.962352 0.000000 0.816480 0.577374 0.000000 0.841133 0.540828 0.000000 0.065561 -0.997849 0.000000 -0.041399 -0.999143 0.000000 0.979097 -0.203395 0.000000 0.866959 -0.498379 0.000000 -0.998518 -0.054419 0.000000 0.731415 -0.681933 0.000000 0.199527 -0.979892 0.000000 0.846351 -0.532626 0.000000 -0.306210 -0.951964 0.000000 0.471143 -0.882057 0.000000 -0.983710 -0.179763 0.000000 -0.993758 -0.111561 0.000000 0.795713 -0.605673 0.000000 0.686731 -0.726911 0.000000 0.276961 -0.960881 0.000000 0.567004 -0.823715 0.000000 -0.583776 -0.811915 0.000000 0.944723 -0.327869 0.000000 0.942236 -0.334948 0.000000 -0.996975 -0.077727 0.000000 -0.944628 -0.328145 0.000000 0.960243 -0.279167 0.000000 -0.842043 -0.539411 0.000000 -0.796256 0.604960 0.000000 -0.387273 -0.921965 0.000000 0.744883 -0.667195 0.000000 0.888081 -0.459688 0.000000 0.844587 -0.535419 0.000000 0.761796 -0.647817 0.000000 -0.850468 -0.526027 0.000000 0.998165 -0.060560 0.000000 -0.998133 -0.061078 0.000000 0.177920 -0.984045 0.000000 0.975045 -0.222005 0.000000 -0.184025 0.982921 0.000000 -0.490865 -0.871236 0.000000 -0.446705 0.894681 0.000000 0.128179 -0.991751 0.000000 -0.010195 0.999948 0.000000 0.209503 0.977808 0.000000 -0.206424 -0.978463 0.000000 -0.326513 0.945193 0.000000 -0.348255 0.937400 0.000000 -0.991452 -0.130470 0.000000 0.237200 0.971461 0.000000 0.549422 0.835545 0.000000 0.191401 -0.981512 0.000000 -0.973693 0.227863 0.000000 0.733048 -0.680177 0.000000 0.413965 0.910293 0.000000 0.509864 0.860255 0.000000 -0.600762 0.799428 0.000000 0.987492 0.157671 0.000000 -0.858903 0.512139 0.000000 0.983386 0.181528 0.000000 -0.606851 0.794816 0.000000 0.828624 0.559806 0.000000 0.510273 0.860013 0.000000 0.682246 -0.731123 0.000000 -0.910688 0.413095 0.000000 -0.595067 0.803676 0.000000 -0.973341 -0.229361 0.000000 -0.836387 -0.548140 0.000000 -0.867994 -0.496574 0.000000 -0.555739 0.831356 0.000000 -0.511599 -0.859224 0.000000 -0.743065 -0.669220 0.000000 0.876969 -0.480546 0.000000 -0.485833 -0.874052 0.000000 0.579001 -0.815327 0.000000 -0.113265 -0.993565 0.000000 -0.495130 -0.868819 0.000000 0.670367 0.742029 0.000000 -0.227781 0.973712 0.000000 -0.979719 0.200376 0.000000 -0.456743 0.889599 0.000000 0.609669 -0.792656 0.000000 -0.426190 0.904634 0.000000 0.578004 0.816034 0.000000 -0.140325 -0.990106 0.000000 0.977353 -0.211615 0.000000 0.551937 -0.833886 0.000000 -0.729090 -0.684418 0.000000 -0.669924 -0.742430 0.000000 -0.952718 -0.303856 0.000000 -0.995848 -0.091037 0.000000 -0.434556 -0.900645 0.000000 -0.583188 -0.812337 0.000000 -0.144243 -0.989542 0.000000 -0.279097 -0.960263 0.000000 -0.472093 0.881549 0.000000 -0.226319 -0.974053 0.000000 -0.789432 0.613838 0.000000 0.528400 -0.848996 0.000000 0.997134 -0.075661 0.000000 -0.416819 -0.908989 0.000000 -0.806148 -0.591715 0.000000 -0.690080 0.723733 0.000000 0.878625 -0.477512 0.000000 0.081092 -0.996707 0.000000 -0.882898 -0.469565 0.000000 -0.362171 -0.932112 0.000000 -0.906430 -0.422357 0.000000 0.882215 -0.470846 0.000000 -0.599249 -0.800562 0.000000 -0.954731 -0.297472 0.000000 -0.484109 -0.875007 0.000000 -0.912109 -0.409948 0.000000 0.722282 -0.691599 0.000000 -0.999855 -0.017043 0.000000 -0.813208 0.581973 0.000000 0.311186 -0.950349 0.000000 0.964681 -0.263421 0.000000 0.938489 -0.345308 0.000000 0.671269 -0.741214 0.000000 0.153025 -0.988222 0.000000 0.964312 -0.264770 0.000000 0.854048 -0.520194 0.000000 -0.507464 0.861673 0.000000 -0.692265 -0.721643 0.000000 -0.928329 -0.371760 0.000000 0.865839 -0.5003