<?xml version='1.0'?>
<VTKFile type='UnstructuredGrid' version='0.1' byte_order='LittleEndian'><UnstructuredGrid>
<Piece NumberOfPoints='3000' NumberOfCells='0'>
<PointData Vectors='principal_stress_direction_1 principal_stress_direction_2 principal_stress_direction_3'>
<DataArray type='Float32' Name='principal_stress_direction_1' NumberOfComponents='3' format='ascii'>
-0.978727 0.205167 0.000000 0.691667 -0.722216 0.000000 0.999673 0.025580 0.000000 -0.501055 0.865416 0.000000 0.448527 -0.893769 0.000000 -0.578915 -0.815388 0.000000 0.004182 -0.999991 0.000000 0.992793 0.119844 0.000000 0.190922 -0.981605 0.000000 -0.998119 0.061311 0.000000 0.844383 0.535740 0.000000 0.924708 -0.380678 0.000000 -0.512645 -0.858601 0.000000 0.934622 0.355643 0.000000 -0.998056 0.062323 0.000000 0.999510 0.031287 0.000000 -0.773486 0.633814 0.000000 0.574767 -0.818317 0.000000 0.128052 -0.991767 0.000000 0.590646 0.806930 0.000000 0.863225 0.504819 0.000000 0.947534 -0.319655 0.000000 -0.956790 0.290780 0.000000 0.352158 -0.935941 0.000000 0.999883 -0.015269 0.000000 0.618017 -0.786165 0.000000 0.865252 -0.501336 0.000000 -0.160746 -0.986996 0.000000 -0.663414 -0.748252 0.000000 0.835295 0.549801 0.000000 0.394130 -0.919055 0.000000 -0.453326 -0.891345 0.000000 -0.408953 0.912555 0.000000 -0.903471 -0.428650 0.000000 -0.765036 -0.643988 0.000000 0.994000 0.109378 0.000000 0.885962 -0.463758 0.000000 0.968740 0.248078 0.000000 -0.665469 0.746425 0.000000 -0.974252 0.225464 0.000000 0.289653 0.957132 0.000000 -0.737374 0.675484 0.000000 -0.985264 0.171040 0.000000 0.726634 0.687025 0.000000 0.573767 0.819018 0.000000 -0.810873 0.585223 0.000000 0.228896 0.973451 0.000000 0.976134 0.217169 0.000000 0.524954 -0.851130 0.000000 0.006135 0.999981 0.000000 0.984570 -0.174992 0.000000 -0.916919 -0.399073 0.000000 -0.989626 -0.143671 0.000000 0.894125 -0.447817 0.000000 0.957395 -0.288780 0.000000 -0.919408 -0.393305 0.000000 -0.586786 0.809742 0.000000 0.935665 -0.352888 0.000000 -0.541208 0.840888 0.000000 0.983702 -0.179805 0.000000 0.405910 -0.913913 0.000000 0.305431 -0.952214 0.000000 -0.057214 -0.998362 0.000000 -0.524120 -0.851645 0.000000 0.146774 -0.989170 0.000000 0.422959 -0.906149 0.000000 -0.797826 -0.602887 0.000000 -0.811970 0.583699 0.000000 -0.734253 -0.678876 0.000000 0.903317 0.428974 0.000000 -0.470936 0.882167 0.000000 0.949858 0.312683 0.000000 0.280787 0.959770 0.000000 -0.920808 0.390016 0.000000 -0.895128 -0.445810 0.000000 0.866528 0.499128 0.000000 -0.711994 0.702185 0.000000 -0.967661 0.252252 0.000000 0.838538 0.544843 0.000000 -0.318548 0.947907 0.000000 0.809553 0.587047 0.000000 -0.789115 0.614246 0.000000 0.953386 0.301754 0.000000 -0.162925 0.986638 0.000000 0.374093 0.927391 0.000000 0.978570 -0.205913 0.000000 -0.850029 0.526736 0.000000 0.981306 0.192455 0.000000 0.856313 -0.516458 0.000000 -0.272005 0.962296 0.000000 -0.775114 -0.631821 0.000000 0.940372 0.340147 0.000000 0.998487 -0.054983 0.000000 0.491639 -0.870799 0.000000 -0.652136 0.758102 0.000000 0.916566 0.399883 0.000000 0.808304 -0.588766 0.000000 0.536427 0.843947 0.000000 -0.130550 0.991442 0.000000 0.597449 -0.801907 0.000000 0.253651 -0.967296 0.000000 -0.235598 -0.971851 0.000000 -0.487882 -0.872909 0.000000 0.248853 -0.968541 0.000000 -0.199704 -0.979856 0.000000 -0.024048 -0.999711 0.000000 -0.695409 -0.718615 0.000000 -0.725533 -0.688188 0.000000 -0.818417 -0.574625 0.000000 -0.943823 -0.330450 0.000000 0.222029 -0.975040 0.000000 0.945804 -0.324739 0.000000 -0.936718 -0.350084 0.000000 -0.967208 -0.253985 0.000000 -0.378333 -0.925669 0.000000 -0.303133 -0.952948 0.000000 0.722143 0.691744 0.000000 -0.762850 -0.646576 0.000000 -0.978052 -0.208363 0.000000 -0.983034 0.183425 0.000000 -0.109736 0.993961 0.000000 0.970473 0.241212 0.000000 -0.832757 0.553638 0.000000 0.900812 0.434210 0.000000 0.026001 0.999662 0.000000 -0.995404 0.095761 0.000000 0.686391 0.727233 0.000000 -0.876575 0.481264 0.000000 -0.552965 0.833204 0.000000 -0.697484 0.716601 0.000000 0.982154 0.188076 0.000000 -0.999718 0.023758 0.000000 -0.716469 0.697619 0.000000 -0.557111 0.830438 0.000000 0.049368 -0.998781 0.000000 0.772626 0.634861 0.000000 -0.123072 -0.992398 0.000000 -0.836926 -0.547315 0.000000 -0.965957 0.258703 0.000000 0.832372 -0.554217 0.000000 -0.974573 -0.224070 0.000000 0.960870 -0.277001 0.000000 -0.858219 -0.513283 0.000000 -0.302344 -0.953199 0.000000 0.116234 -0.993222 0.000000 0.950824 -0.309730 0.000000 -0.142897 0.989738 0.000000 0.159219 -0.987243 0.000000 0.150308 -0.988639 0.000000 0.807899 -0.589321 0.000000 0.870252 -0.492606 0.000000 -0.096417 -0.995341 0.000000 -0.678489 -0.734610 0.000000 0.509837 -0.860271 0.000000 -0.311017 -0.950404 0.000000 0.721703 0.692203 0.000000 0.074682 -0.997207 0.000000 -0.744704 -0.667395 0.000000 0.089213 -0.996013 0.000000 -0.711110 -0.703081 0.000000 -0.697164 -0.716911 0.000000 0.708751 0.705458 0.000000 -0.536565 0.843859 0.000000 -0.772536 0.634971 0.000000 -0.908115 -0.418721 0.000000 -0.970835 -0.239751 0.000000 0.814097 0.580729 0.000000 0.683193 -0.730238 0.000000 -0.798795 -0.601604 0.000000 -0.769390 -0.638779 0.000000 -0.744326 0.667816 0.000000 -0.975370 -0.220575 0.000000 0.638494 0.769627 0.000000 -0.914336 -0.404956 0.000000 -0.696815 0.717251 0.000000 -0.944759 0.327765 0.000000 0.840624 0.541619 0.000000 0.806509 0.591222 0.000000 -0.982285 0.187391 0.000000 0.931649 0.363359 0.000000 -0.977283 0.211939 0.000000 -0.885733 0.464196 0.000000 -0.750803 0.660526 0.000000 0.950806 0.309788 0.000000 0.930651 0.365908 0.000000 -0.976204 0.216854 0.000000 -0.926650 0.375924 0.000000 -0.737719 0.675108 0.000000 0.996471 -0.083942 0.000000 0.986784 -0.162040 0.000000 -0.990415 -0.138125 0.000000 -0.743495 0.668742 0.000000 0.878678 -0.477415 0.000000 -0.998721 -0.050566 0.000000 0.490163 0.871631 0.000000 0.920086 -0.391716 0.000000 0.766045 -0.642787 0.000000 -0.701575 -0.712595 0.000000 0.929302 -0.369321 0.000000 -0.176860 -0.984236 0.000000 0.773593 -0.633682 0.000000 -0.723263 -0.690572 0.000000 -0.149036 -0.988832 0.000000 0.727818 -0.685770 0.000000 0.544629 -0.838677 0.000000 -0.332586 -0.943073 0.000000 0.009493 -0.999955 0.000000 -0.131552 -0.991309 0.000000 -0.797941 0.602736 0.000000 -0.052081 -0.998643 0.000000 0.405752 -0.913983 0.000000 0.210050 -0.977691 0.000000 -0.647548 -0.762025 0.000000 -0.976289 -0.216473 0.000000 -0.760035 -0.649882 0.000000 -0.858580 -0.512680 0.000000 -0.291451 -0.956586 0.000000 -0.789459 0.613804 0.000000 -0.764485 0.644642 0.000000 0.456433 0.889758 0.000000 0.871081 0.491140 0.000000 0.999631 -0.027146 0.000000 0.809610 0.586968 0.000000 -0.682434 -0.730947 0.000000 -0.912424 0.409247 0.000000 0.982682 0.185299 0.000000 -0.978506 -0.206218 0.000000 -0.973320 -0.229452 0.000000 -0.616341 -0.787479 0.000000 -0.931915 0.362676 0.000000 0.233478 0.972362 0.000000 -0.753759 0.657151 0.000000 0.671134 0.741336 0.000000 -0.744990 0.667076 0.000000 -0.928335 0.371744 0.000000 0.993141 0.116919 0.000000 -0.916301 0.400490 0.000000 0.820415 0.571769 0.000000 -0.721070 0.692862 0.000000 -0.762792 0.646644 0.000000 0.843025 0.537875 0.000000 0.701758 0.712416 0.000000 -0.876931 0.480616 0.000000 -0.761020 0.648729 0.000000 0.559280 0.828979 0.000000 0.991325 0.131434 0.000000 -0.960382 0.278687 0.000000 0.574126 0.818767 0.000000 -0.361861 -0.932232 0.000000 0.997010 -0.077274 0.000000 0.646844 -0.762622 0.000000 -0.887723 0.460378 0.000000 0.997914 -0.064555 0.000000 0.593169 -0.805078 0.000000 0.998141 -0.060944 0.000000 -0.907870 -0.419253 0.000000 0.816214 -0.577750 0.000000 0.763066 -0.646321 0.000000 0.894786 -0.446496 0.000000 -0.315171 -0.949035 0.000000 0.418185 -0.908362 0.000000 0.329638 -0.944108 0.000000 0.540370 -0.841428 0.000000 0.460040 -0.887898 0.000000 0.384193 -0.923253 0.000000 0.284673 -0.958625 0.000000 0.537880 -0.843021 0.000000 -0.268561 -0.963263 0.000000 0.614382 -0.789009 0.000000 -0.499768 -0.866159 0.000000 -0.287128 0.957892 0.000000 0.999292 -0.037615 0.000000 -0.548198 0.836349 0.000000 -0.863668 -0.504062 0.000000 0.327601 -0.944816 0.000000 0.655188 -0.755466 0.000000 -0.757120 0.653275 0.000000 -0.861548 -0.507677 0.000000 -0.782523 -0.622622 0.000000 0.644074 0.764963 0.000000 0.999880 0.015511 0.000000 -0.739453 0.673208 0.000000 0.854171 0.519992 0.000000 0.589589 0.807703 0.000000 -0.781277 -0.624185 0.000000 -0.694659 -0.719339 0.000000 0.394658 0.918828 0.000000 0.927831 0.373001 0.000000 -0.916115 -0.400916 0.000000 -0.712376 0.701798 0.000000 -0.281790 -0.959476 0.000000 0.511600 0.859224 0.000000 -0.806904 0.590682 0.000000 -0.297178 0.954822 0.000000 0.059064 0.998254 0.000000 -0.970928 0.239374 0.000000 -0.457646 0.889134 0.000000 -0.766990 0.641659 0.000000 -0.944360 0.328913 0.000000 0.512758 0.858533 0.000000 -0.495358 0.868689 0.000000 -0.461541 0.887119 0.000000 -0.648716 0.761030 0.000000 0.705373 0.708836 0.000000 0.824016 0.566567 0.000000 -0.825336 0.564642 0.000000 -0.850353 0.526213 0.000000 0.880111 0.474769 0.000000 0.958219 0.286034 0.000000 -0.157928 0.987451 0.000000 0.794183 0.607678 0.000000 -0.905380 0.424601 0.000000 -0.936320 0.351147 0.000000 0.951088 -0.308921 0.000000 0.539987 -0.841673 0.000000 0.868947 -0.494905 0.000000 -0.948205 -0.317660 0.000000 0.572644 0.819804 0.000000 0.482981 -0.875631 0.000000 -0.987747 0.156065 0.000000 0.068460 -0.997654 0.000000 0.856021 -0.516941 0.000000 0.397417 -0.917638 0.000000 0.660067 -0.751206 0.000000 0.323220 -0.946324 0.000000 0.714368 -0.699770 0.000000 0.259353 -0.965782 0.000000 0.645338 -0.763897 0.000000 0.332966 -0.942939 0.000000 0.233139 -0.972443 0.000000 0.094584 -0.995517 0.000000 0.888433 -0.459006 0.000000 0.054838 -0.998495 0.000000 -0.227663 -0.973740 0.000000 -0.014704 -0.999892 0.000000 -0.774283 -0.632839 0.000000 -0.104535 0.994521 0.000000 0.016400 0.999866 0.000000 -0.598096 -0.801425 0.000000 -0.930614 -0.366001 0.000000 0.075691 -0.997131 0.000000 -0.867167 -0.498018 0.000000 -0.458360 -0.888767 0.000000 0.501969 -0.864886 0.000000 -0.796098 0.605168 0.000000 -0.523281 -0.852160 0.000000 0.760878 0.648895 0.000000 -0.683119 -0.730308 0.000000 -0.899258 0.437419 0.000000 -0.670548 -0.741866 0.000000 -0.980609 -0.195974 0.000000 -0.585045 0.811001 0.000000 -0.935212 -0.354089 0.000000 -0.929114 -0.369793 0.000000 -0.427674 -0.903933 0.000000 -0.357823 -0.933790 0.000000 0.802437 0.596737 0.000000 -0.996290 -0.086061 0.000000 -0.753737 0.657177 0.000000 -0.997100 0.076108 0.000000 -0.337879 0.941190 0.000000 0.113252 0.993566 0.000000 -0.700080 0.714064 0.000000 -0.666528 0.745480 0.000000 -0.679038 0.734103 0.000000 0.601777 0.798664 0.000000 -0.379295 0.925276 0.000000 -0.489806 0.871831 0.000000 0.389517 0.921019 0.000000 0.462810 0.886458 0.000000 -0.217551 0.976049 0.000000 -0.908348 0.418216 0.000000 0.727747 0.685845 0.000000 0.415412 0.909633 0.000000 -0.977141 0.212594 0.000000 0.998777 0.049451 0.000000 0.481608 0.876387 0.000000 -0.820911 0.571057 0.000000 0.665661 0.746254 0.000000 0.757341 0.653020 0.000000 -0.948462 -0.316891 0.000000 0.872995 -0.487729 0.000000 0.961688 0.274145 0.000000 -0.881966 0.471313 0.000000 0.620741 -0.784016 0.000000 0.597269 -0.802041 0.000000 0.506185 0.862425 0.000000 0.472898 -0.881117 0.000000 0.952725 -0.303833 0.000000 0.595599 -0.803282 0.000000 -0.283613 -0.958939 0.000000 0.561445 -0.827514 0.000000 -0.038641 -0.999253 0.000000 -0.999743 -0.022648 0.000000 0.995528 -0.094471 0.000000 0.180224 -0.983626 0.000000 0.638769 -0.769398 0.000000 0.582363 -0.812929 0.000000 0.438854 -0.898558 0.000000 0.246539 -0.969133 0.000000 -0.012133 -0.999926 0.000000 0.485958 -0.873982 0.000000 0.061456 -0.998110 0.000000 -0.085344 0.996352 0.000000 -0.946837 0.321715 0.000000 0.114623 -0.993409 0.000000 -0.953525 -0.301315 0.000000 -0.983865 -0.178912 0.000000 -0.991658 -0.128896 0.000000 -0.067244 -0.997737 0.000000 -0.844374 -0.535754 0.000000 -0.023575 -0.999722 0.000000 -0.846256 -0.532777 0.000000 -0.949101 -0.314971 0.000000 -0.186180 -0.982516 0.000000 -0.707637 0.706576 0.000000 -0.412629 -0.910899 0.000000 -0.767654 -0.640865 0.000000 -0.841565 -0.540156 0.000000 -0.810134 -0.586245 0.000000 -0.393465 -0.919340 0.000000 0.605325 0.795979 0.000000 -0.914703 0.404126 0.000000 0.353044 0.935607 0.000000 -0.864649 0.502376 0.000000 -0.784283 0.620404 0.000000 -0.988549 0.150900 0.000000 -0.684192 0.729302 0.000000 0.955240 0.295832 0.000000 0.517330 0.855786 0.000000 -0.347549 0.937662 0.000000 -0.912423 0.409249 0.000000 -0.748950 0.662627 0.000000 0.293151 0.956066 0.000000 0.565411 0.824809 0.000000 0.456244 0.889855 0.000000 -0.526211 0.850354 0.000000 -0.791053 0.611747 0.000000 0.222251 0.974990 0.000000 -0.693332 0.720619 0.000000 0.662970 -0.748646 0.000000 -0.220813 0.975316 0.000000 0.999487 0.032035 0.000000 0.701616 0.712555 0.000000 0.286721 0.958014 0.000000 -0.954755 0.297393 0.000000 -0.459602 0.888125 0.000000 -0.825113 0.564968 0.000000 0.568250 0.822856 0.000000 0.680004 0.733209 0.000000 -0.847743 0.530408 0.000000 -0.194255 0.980951 0.000000 -0.205218 -0.978716 0.000000 0.724009 -0.689790 0.000000 -0.489073 0.872243 0.000000 -0.925914 0.377734 0.000000 -0.540122 0.841586 0.000000 0.757488 -0.652849 0.000000 -0.365502 -0.930810 0.000000 -0.371591 -0.928397 0.000000 0.519273 -0.854609 0.000000 0.659526 -0.751682 0.000000 0.467337 -0.884079 0.000000 0.439357 -0.898313 0.000000 -0.066473 -0.997788 0.000000 0.239752 -0.970834 0.000000 0.683068 -0.730354 0.000000 0.601973 -0.798516 0.000000 -0.034863 -0.999392 0.000000 0.023307 -0.999728 0.000000 0.275274 -0.961366 0.000000 -0.949638 -0.313349 0.000000 0.028622 -0.999590 0.000000 0.758476 -0.651701 0.000000 -0.628377 0.777909 0.000000 -0.964564 -0.263847 0.000000 -0.752202 -0.658932 0.000000 0.847526 0.530755 0.000000 -0.990137 -0.140099 0.000000 -0.230999 -0.972954 0.000000 0.933859 -0.357641 0.000000 -0.739000 -0.673705 0.000000 -0.464961 -0.885331 0.000000 -0.938625 -0.344940 0.000000 -0.993146 -0.116878 0.000000 -0.789134 -0.614221 0.000000 -0.959004 -0.283391 0.000000 -0.934154 -0.356870 0.000000 0.999949 -0.010113 0.000000 1.000000 0.000064 0.000000 0.408561 0.912731 0.000000 -0.642340 0.766420 0.000000 0.411995 0.911186 0.000000 0.862793 0.505557 0.000000 -0.807271 0.590181 0.000000 0.404739 0.914432 0.000000 0.992435 0.122772 0.000000 -0.710568 0.703628 0.000000 0.459288 0.888287 0.000000 -0.998804 0.048888 0.000000 -0.382847 0.923812 0.000000 -0.528761 0.848770 0.000000 0.478035 0.878341 0.000000 0.932159 0.362050 0.000000 -0.669610 0.742713 0.000000 0.290219 0.956960 0.000000 -0.555463 -0.831542 0.000000 -0.159479 0.987201 0.000000 0.878116 0.478447 0.000000 -0.940994 0.338424 0.000000 -0.730879 0.682507 0.000000 0.327975 0.944687 0.000000 -0.255097 0.966916 0.000000 -0.436659 0.899627 0.000000 -0.874640 0.484772 0.000000 0.916760 0.399438 0.000000 -0.113621 0.993524 0.000000 -0.531152 0.847276 0.000000 -0.529154 0.848526 0.000000 0.754068 0.656796 0.000000 0.883585 0.468272 0.000000 -0.748925 0.662654 0.000000 0.742578 0.669759 0.000000 -0.737844 0.674972 0.000000 0.747307 0.664479 0.000000 -0.583471 0.812134 0.000000 -0.535235 0.844703 0.000000 0.747921 0.663788 0.000000 -0.547026 0.837116 0.000000 0.939946 -0.341323 0.000000 -0.944681 0.327991 0.000000 0.407103 -0.913382 0.000000 -0.434844 -0.900506 0.000000 -0.091593 -0.995796 0.000000 0.574392 -0.818580 0.000000 0.423119 -0.906074 0.000000 0.401169 -0.916004 0.000000 0.320325 -0.947308 0.000000 0.410955 -0.911656 0.000000 0.293962 -0.955817 0.000000 0.230068 -0.973174 0.000000 0.079009 -0.996874 0.000000 -0.681089 -0.732200 0.000000 0.394008 -0.919107 0.000000 -0.181704 -0.983353 0.000000 0.442026 -0.897002 0.000000 0.258350 -0.966051 0.000000 -0.800219 -0.599708 0.000000 0.969358 0.245653 0.000000 0.770429 0.637526 0.000000 -0.221185 -0.975232 0.000000 -0.982477 -0.186383 0.000000 0.095894 -0.995392 0.000000 -0.953981 -0.299867 0.000000 0.961988 0.273093 0.000000 0.862597 -0.505892 0.000000 -0.785176 -0.619273 0.000000 0.998904 -0.046802 0.000000 -0.860594 -0.509292 0.000000 -0.593423 -0.804891 0.000000 -0.909760 -0.415134 0.000000 -0.822128 -0.569302 0.000000 -0.770731 0.637160 0.000000 -0.809136 -0.587622 0.000000 -0.729622 -0.683851 0.000000 -0.659499 0.751706 0.000000 -0.568498 0.822685 0.000000 0.690517 0.723316 0.000000 0.670028 0.742336 0.000000 -0.939303 0.343088 0.000000 -0.998448 0.055700 0.000000 0.699398 0.714732 0.000000 -0.884227 0.467057 0.000000 -0.134169 0.990958 0.000000 -0.235811 -0.971799 0.000000 -0.999269 -0.038221 0.000000 0.352228 0.935914 0.000000 0.941233 0.337759 0.000000 0.284356 0.958719 0.000000 0.341084 0.940033 0.000000 0.831461 0.555584 0.000000 0.970906 0.239460 0.000000 0.704449 0.709755 0.000000 -0.838984 0.544156 0.000000 0.994365 0.106011 0.000000 -0.681279 0.732023 0.000000 -0.943851 0.330370 0.000000 -0.777244 0.629199 0.000000 -0.085842 0.996309 0.000000 0.987495 0.157652 0.000000 0.546316 0.837579 0.000000 -0.967733 0.251979 0.000000 -0.783725 0.621108 0.000000 0.428610 -0.903490 0.000000 0.629487 0.777011 0.000000 0.973786 -0.227467 0.000000 0.693647 -0.720315 0.000000 0.998210 -0.059814 0.000000 0.734389 0.678729 0.000000 -0.564047 -0.825743 0.000000 0.561184 0.827691 0.000000 -0.915871 0.401474 0.000000 0.012753 -0.999919 0.000000 0.082824 0.996564 0.000000 0.500783 0.865573 0.000000 0.611786 -0.791024 0.000000 -0.976636 -0.214900 0.000000 -0.940115 -0.340856 0.000000 0.868295 -0.496048 0.000000 0.961125 -0.276113 0.000000 0.363599 -0.931555 0.000000 0.198473 -0.980106 0.000000 0.306900 -0.951742 0.000000 -0.338293 -0.941041 0.000000 0.431549 -0.902089 0.000000 0.606861 -0.794808 0.000000 -0.241919 -0.970296 0.000000 0.796795 -0.604249 0.000000 0.998742 0.050140 0.000000 0.632554 -0.774516 0.000000 -0.469949 -0.882693 0.000000 0.029355 -0.999569 0.000000 0.546696 -0.837331 0.000000 -0.769405 0.638761 0.000000 -0.808917 0.587923 0.000000 0.451505 -0.892269 0.000000 -0.732587 -0.680673 0.000000 -0.988864 -0.148824 0.000000 0.035837 0.999358 0.000000 -0.998320 -0.057944 0.000000 -0.907195 -0.420710 0.000000 -0.175147 -0.984542 0.000000 -0.928571 -0.371154 0.000000 -0.984114 -0.177537 0.000000 -0.258494 -0.966013 0.000000 -0.910768 -0.412919 0.000000 -0.703662 -0.710534 0.000000 -0.961733 -0.273989 0.000000 0.104192 -0.994557 0.000000 0.725446 0.688279 0.000000 -0.997053 -0.076710 0.000000 -0.656737 0.754120 0.000000 0.930372 0.366616 0.000000 0.498144 0.867095 0.000000 -0.073691 0.997281 0.000000 -0.972392 -0.233353 0.000000 -0.450485 0.892784 0.000000 -0.997359 0.072635 0.000000 0.323304 0.946295 0.000000 -0.121966 -0.992534 0.000000 -0.396591 0.917996 0.000000 0.361569 0.932345 0.000000 -0.272575 0.962135 0.000000 0.997559 0.069834 0.000000 -0.814917 0.579577 0.000000 -0.994798 0.101870 0.000000 0.136395 0.990655 0.000000 -0.216874 0.976200 0.000000 0.777821 0.628486 0.000000 -0.771341 0.636422 0.000000 0.193967 0.981008 0.000000 -0.035333 0.999376 0.000000 0.818879 0.573966 0.000000 -0.768046 0.640395 0.000000 0.621892 0.783103 0.000000 -0.777689 0.628649 0.000000 0.412379 0.911013 0.000000 0.991299 0.131626 0.000000 0.952183 -0.305530 0.000000 -0.564279 0.825584 0.000000 0.937893 -0.346924 0.000000 0.916398 -0.400267 0.000000 -0.200937 0.979604 0.000000 0.941533 0.336921 0.000000 -0.999162 -0.040941 0.000000 -0.698926 0.715194 0.000000 -0.876069 0.482185 0.000000 -0.485682 0.874136 0.000000 0.613255 0.789885 0.000000 0.774289 -0.632832 0.000000 -0.563095 0.826392 0.000000 0.512113 0.858918 0.000000 -0.918392 -0.395671 0.000000 0.608918 -0.793233 0.000000 0.973853 -0.227177 0.000000 0.559544 -0.828801 0.000000 0.741947 -0.670458 0.000000 0.400440 -0.916323 0.000000 -0.126486 -0.991968 0.000000 0.372450 -0.928052 0.000000 0.392311 -0.919833 0.000000 0.841676 -0.539983 0.000000 0.802009 -0.597312 0.000000 0.262989 -0.964799 0.000000 -0.250625 -0.968084 0.000000 0.208561 0.978009 0.000000 -0.850075 -0.526661 0.000000 -0.311833 -0.950137 0.000000 -0.956744 -0.290931 0.000000 0.999857 -0.016883 0.000000 0.666130 -0.745836 0.000000 -0.692125 -0.721778 0.000000 -0.898583 0.438803 0.000000 -0.430958 -0.902372 0.000000 -0.765026 -0.643999 0.000000 0.990395 -0.138269 0.000000 -0.824113 -0.566425 0.000000 -0.936678 -0.350192 0.000000 -0.569719 -0.821840 0.000000 0.952883 -0.303339 0.000000 -0.841943 -0.539566 0.000000 -0.973683 -0.227907 0.000000 0.863352 -0.504601 0.000000 -0.983391 -0.181498 0.000000 -0.793129 -0.609054 0.000000 0.982371 -0.186942 0.000000 -0.659294 -0.751886 0.000000 -0.962719 -0.270504 0.000000 -0.042904 0.999079 0.000000 0.787859 0.615856 0.000000 0.999099 0.042443 0.000000 -0.426908 0.904295 0.000000 -0.777794 0.628519 0.000000 0.783116 0.621875 0.000000 0.371381 0.928480 0.000000 0.793378 0.608730 0.000000 -0.856624 -0.515941 0.000000 0.595560 -0.803311 0.000000 -0.663670 0.748026 0.000000 0.674142 0.738602 0.000000 0.829358 0.558718 0.000000 -0.889942 0.456074 0.000000 0.337719 0.941247 0.000000 0.179482 -0.983761 0.000000 -0.719001 0.695009 0.000000 -0.531058 0.847336 0.000000 0.830305 0.557309 0.000000 0.431787 0.901976 0.000000 0.987925 0.154932 0.000000 -0.899022 0.437903 0.000000 -0.436722 0.899596 0.000000 0.821735 0.569870 0.000000 0.169013 0.985614 0.000000 -0.670637 0.741786 0.000000 -0.865660 0.500632 0.000000 0.602670 0.797990 0.000000 0.561416 0.827534 0.000000 -0.144164 -0.989554 0.000000 -0.569923 0.821698 0.000000 0.740795 0.671731 0.000000 0.835654 -0.549256 0.000000 -0.855873 0.517186 0.000000 -0.367105 0.930180 0.000000 -0.911278 0.411793 0.000000 0.655006 0.755624 0.000000 0.898092 0.439808 0.000000 -0.498150 0.867091 0.000000 0.274729 0.961522 0.000000 0.940627 0.339442 0.000000 0.954699 0.297573 0.000000 -0.301570 0.953444 0.000000 0.919118 -0.393983 0.000000 0.836957 0.547269 0.000000 0.679633 -0.733552 0.000000 0.525206 -0.850975 0.000000 0.750173 -0.661242 0.000000 0.544143 0.838993 0.000000 0.424080 -0.905624 0.000000 -0.875254 0.483664 0.000000 0.250587 -0.968094 0.000000 0.613735 0.789512 0.000000 0.386327 -0.922362 0.000000 -0.634862 -0.772626 0.000000 0.967319 0.253563 0.000000 -0.152770 -0.988262 0.000000 -0.212027 -0.977264 0.000000 0.682331 -0.731044 0.000000 -0.999571 -0.029283 0.000000 0.212878 -0.977079 0.000000 0.861022 0.508567 0.000000 -0.702291 0.711890 0.000000 -0.729719 -0.683747 0.000000 -0.708690 -0.705520 0.000000 -0.594921 -0.803784 0.000000 -0.914186 0.405295 0.000000 -0.985926 -0.167185 0.000000 -0.869034 -0.494753 0.000000 -0.653252 -0.757140 0.000000 -0.902066 -0.431598 0.000000 -0.827393 0.561623 0.000000 0.271579 0.962416 0.000000 -0.424302 -0.905521 0.000000 -0.779312 -0.626637 0.000000 -0.271585 0.962414 0.000000 0.999684 -0.025146 0.000000 -0.881443 -0.472290 0.000000 -0.873268 -0.487240 0.000000 0.806555 -0.591159 0.000000 -0.913321 -0.407241 0.000000 -0.836202 0.548422 0.000000 0.496487 0.868044 0.000000 0.918645 0.395084 0.000000 -0.137790 0.990462 0.000000 0.977398 0.211409 0.000000 -0.670655 0.741770 0.000000 0.760331 0.649536 0.000000 0.171745 0.985141 0.000000 -0.979518 0.201355 0.000000 -0.502562 0.864541 0.000000 0.407031 -0.913414 0.000000 0.128131 0.991757 0.000000 0.788058 0.615601 0.000000 -0.484338 0.874881 0.000000 0.412128 0.911126 0.000000 -0.999933 0.011614 0.000000 -0.110704 0.993853 0.000000 -0.995309 0.096743 0.000000 -0.468591 0.883415 0.000000 -0.819885 0.572528 0.000000 0.738267 0.674508 0.000000 0.579712 0.814821 0.000000 0.754386 0.656431 0.000000 0.967684 0.252165 0.000000 0.703259 0.710934 0.000000 -0.779684 0.626174 0.000000 0.996975 0.077726 0.000000 0.614950 0.788566 0.000000 -0.771699 0.635988 0.000000 0.262456 -0.964944 0.000000 -0.044455 0.999011 0.000000 0.649216 -0.760604 0.000000 0.372764 -0.927926 0.000000 0.477420 0.878675 0.000000 -0.398824 0.917027 0.000000 -0.212299 0.977205 0.000000 -0.373897 0.927470 0.000000 0.124560 0.992212 0.000000 0.720872 -0.693068 0.000000 -0.974039 0.226382 0.000000 -0.929243 -0.369468 0.000000 -0.584726 0.811231 0.000000 0.790640 0.612281 0.000000 0.999599 0.028329 0.000000 0.829380 0.558686 0.000000 -0.686916 0.726737 0.000000 -0.034700 0.999398 0.000000 -0.107150 0.994243 0.000000 0.599784 0.800162 0.000000 0.890322 0.455332 0.000000 0.591826 -0.806066 0.000000 -0.994808 -0.101768 0.000000 -0.586992 0.809593 0.000000 0.299103 -0.954221 0.000000 0.710301 0.703898 0.000000 0.796894 0.604119 0.000000 0.251721 -0.967800 0.000000 0.977305 -0.211836 0.000000 0.471918 -0.881642 0.000000 -0.730175 -0.683260 0.000000 -0.745466 0.666544 0.000000 0.303956 -0.952686 0.000000 -0.822268 -0.569101 0.000000 -0.938106 0.346349 0.000000 -0.999657 -0.026184 0.000000 -0.579993 -0.814622 0.000000 -0.470106 -0.882610 0.000000 -0.421787 -0.906695 0.000000 -0.850428 -0.526091 0.000000 -0.586143 -0.810207 0.000000 -0.741851 -0.670564 0.000000 -0.864823 -0.502077 0.000000 -0.323600 -0.946194 0.000000 -0.337829 -0.941207 0.000000 -0.999587 -0.028744 0.000000 -0.885960 0.463762 0.000000 0.931628 -0.363414 0.000000 -0.835842 0.548970 0.000000 0.995700 0.092633 0.000000 0.765880 -0.642983 0.000000 -0.429329 -0.903148 0.000000 -0.560008 0.828487 0.000000 0.994830 0.101553 0.000000 -0.828153 -0.560501 0.000000 -0.849545 0.527516 0.000000 0.489341 0.872093 0.000000 -0.799978 0.600030 0.000000 0.552372 0.833598 0.000000 -0.619166 0.785260 0.000000 0.013012 0.999915 0.000000 0.259862 0.965646 0.000000 0.081703 0.996657 0.000000 -0.178866 0.983873 0.000000 -0.614627 0.788818 0.000000 0.293232 0.956041 0.000000 0.175487 0.984482 0.000000 0.745339 0.666686 0.000000 0.075770 0.997125 0.000000 -0.530542 0.847659 0.000000 -0.978147 0.207916 0.000000 -0.604472 0.796626 0.000000 0.825307 0.564685 0.000000 0.535139 0.844764 0.000000 -0.752374 0.658737 0.000000 -0.804787 0.593564 0.000000 0.769265 -0.638930 0.000000 0.763020 0.646375 0.000000 -0.085529 0.996336 0.000000 -0.861679 0.507454 0.000000 -0.424648 0.905358 0.000000 -0.011615 0.999933 0.000000 0.557100 0.830445 0.000000 0.658844 0.752280 0.000000 0.456858 -0.889539 0.000000 0.762027 -0.647545 0.000000 0.222472 -0.974939 0.000000 -0.999453 0.033059 0.000000 0.255563 0.966793 0.000000 0.340856 0.940116 0.000000 0.459623 -0.888114 0.000000 0.402655 0.915352 0.000000 -0.584135 -0.811657 0.000000 -0.416646 0.909069 0.000000 0.998878 0.047356 0.000000 -0.267785 0.963479 0.000000 -0.426476 0.904499 0.000000 -0.910082 0.414429 0.000000 -0.846396 -0.532554 0.000000 -0.963450 0.267887 0.000000 -0.957255 0.289246 0.000000 0.999985 -0.005557 0.000000 0.850436 0.526078 0.000000 -0.149750 0.988724 0.000000 -0.857141 0.515082 0.000000 0.072350 0.997379 0.000000 0.431581 -0.902074 0.000000 0.613901 0.789383 0.000000 0.738364 -0.674402 0.000000 0.150979 -0.988537 0.000000 -0.892303 0.451437 0.000000 -0.894630 0.446808 0.000000 0.199668 -0.979864 0.000000 0.890515 0.454954 0.000000 0.961009 -0.276519 0.000000 -0.535605 0.844469 0.000000 0.786816 0.617188 0.000000 -0.574176 0.818732 0.000000 -0.040139 -0.999194 0.000000 -0.790274 0.612754 0.000000 -0.369994 -0.929034 0.000000 -0.828504 -0.559984 0.000000 -0.752501 -0.658592 0.000000 -0.870760 -0.491707 0.000000 -0.570567 -0.821251 0.000000 -0.969136 -0.246528 0.000000 0.985278 0.170957 0.000000 0.833527 -0.552479 0.000000 0.982642 -0.185511 0.000000 0.570860 0.821047 0.000000 0.945649 -0.325190 0.000000 0.843510 -0.537113 0.000000 0.969767 -0.244033 0.000000 0.929289 -0.369354 0.000000 -0.333461 0.942764 0.000000 -0.613973 -0.789327 0.000000 -0.425061 0.905165 0.000000 0.816202 0.577767 0.000000 0.067196 0.997740 0.000000 0.211632 0.977349 0.000000 -0.288813 0.957386 0.000000 0.908615 0.417635 0.000000 -0.344897 0.938641 0.000000 -0.596852 0.802351 0.000000 0.232559 0.972582 0.000000 0.543351 0.839506 0.000000 -0.256521 0.966539 0.000000 -0.972314 0.233678 0.000000 0.394060 -0.919085 0.000000 -0.886826 0.462103 0.000000 0.472751 0.881196 0.000000 -0.610411 0.792085 0.000000 0.992330 0.123614 0.000000 -0.729344 0.684147 0.000000 0.989049 0.147587 0.000000 -0.599091 0.800681 0.000000 0.881717 0.471779 0.000000 0.521658 0.853155 0.000000 0.425272 -0.905066 0.000000 -0.604064 -0.796936 0.000000 -0.973926 -0.226864 0.000000 -0.769456 0.638700 0.000000 -0.640066 0.768320 0.000000 0.807254 0.590204 0.000000 0.916058 0.401046 0.000000 -0.221019 -0.975269 0.000000 -0.118134 -0.992998 0.000000 -0.588765 0.808304 0.000000 -0.524588 0.851356 0.000000 0.817223 0.576322 0.000000 0.768111 0.640317 0.000000 -0.894721 0.446626 0.000000 0.268360 0.963319 0.000000 -0.305443 0.952210 0.000000 -0.969018 0.246989 0.000000 -0.885418 -0.464795 0.000000 0.715826 0.698279 0.000000 0.058586 0.998282 0.000000 -0.327509 0.944848 0.000000 -0.032463 0.999473 0.000000 -0.034151 0.999417 0.000000 0.561791 0.827279 0.000000 -0.999995 0.003281 0.000000 -0.884070 0.467355 0.000000 0.964544 0.263922 0.000000 -0.579096 0.815259 0.000000 0.446004 0.895031 0.000000 0.797741 0.603000 0.000000 0.954872 0.297017 0.000000 -0.392414 -0.919789 0.000000 0.992922 0.118764 0.000000 0.443667 0.896192 0.000000 0.999873 0.015925 0.000000 -0.780197 0.625534 0.000000 0.921006 0.389549 0.000000 0.851319 -0.524649 0.000000 -0.855399 -0.517970 0.000000 0.787033 -0.616910 0.000000 -0.999924 -0.012361 0.000000 0.999877 -0.015705 0.000000 0.943768 -0.330609 0.000000 -0.862698 -0.505720 0.000000 0.992642 0.121085 0.000000 0.991003 0.133840 0.000000 -0.214553 -0.976712 0.000000 -0.898544 -0.438882 0.000000 0.970512 -0.241053 0.000000 -0.621781 0.783191 0.000000 -0.058790 0.998270 0.000000 -0.556154 -0.831079 0.000000 -0.429830 0.902910 0.000000 0.608907 0.793242 0.000000 -0.130306 0.991474 0.000000 0.940438 0.339966 0.000000 0.466558 -0.884490 0.000000 0.441335 0.897342 0.000000 -0.973147 0.230185 0.000000 0.779475 -0.626433 0.000000 -0.502743 0.864436 0.000000 -0.756869 -0.653567 0.000000 0.817518 0.575904 0.000000 -0.983844 0.179025 0.000000 0.969734 0.244165 0.000000 -0.660802 0.750560 0.000000 0.559530 0.828810 0.000000 -0.974551 0.224166 0.000000 0.675044 0.737778 0.000000 -0.312624 0.949877 0.000000 0.787277 -0.616599 0.000000 0.922333 0.386396 0.000000 0.462109 0.886823 0.000000 -0.8022