<?xml version='1.0'?>
<VTKFile type='PolyData' version='0.1' byte_order='LittleEndian'><PolyData>
<Piece NumberOfPoints='9000' NumberOfVerts='0' NumberOfLines='0' NumberOfStrips='0' NumberOfPolys='3000'>
<Points>
<DataArray type='Float32' NumberOfComponents='3' format='ascii'>
10.736427 49.029295 0.000000 7.719908 49.648946 0.000000 8.855427 47.529934 0.000000 4.603121 49.849767 0.000000 6.583487 47.171725 0.000000 7.670733 49.579359 0.000000 8.889329 47.413023 0.000000 7.675293 49.488050 0.000000 6.550526 47.097713 0.000000 6.553455 47.104557 0.000000 4.616931 49.814280 0.000000 4.592599 47.237211 0.000000 1.640966 49.930574 0.000000 2.571932 47.066629 0.000000 4.615241 49.792531 0.000000 4.587115 47.217530 0.000000 4.616462 49.793935 0.000000 2.573661 47.068554 0.000000 2.523223 47.053016 0.000000 1.640686 49.932237 0.000000 -0.331780 47.658421 0.000000 -1.644602 49.929976 0.000000 -0.333733 47.656170 0.000000 1.638725 49.929975 0.000000 -0.339767 47.657756 0.000000 -1.647162 49.933514 0.000000 -2.913211 47.851488 0.000000 -4.627421 49.865372 0.000000 -2.999050 47.900034 0.000000 -1.650405 49.929574 0.000000 -2.993802 47.893846 0.000000 -4.646286 49.838953 0.000000 -4.593043 47.868891 0.000000 -7.702383 49.581185 0.000000 -6.115492 47.848906 0.000000 -4.642359 49.927820 0.000000 -4.593856 47.869150 0.000000 -4.655957 49.838953 0.000000 -6.158935 47.781595 0.000000 -6.123763 47.734769 0.000000 -7.694824 49.481438 0.000000 -8.483636 47.246684 0.000000 -10.732058 49.069786 0.000000 -8.443237 47.395185 0.000000 -7.707305 49.647907 0.000000 19.804879 46.524636 0.000000 16.864420 47.439547 0.000000 16.596757 45.763584 0.000000 16.765886 47.421607 0.000000 13.862326 48.447617 0.000000 16.332873 45.780572 0.000000 16.285090 45.595215 0.000000 13.777031 48.227015 0.000000 13.946499 45.157839 0.000000 8.876964 47.444836 0.000000 10.981062 45.630902 0.000000 10.751251 48.952580 0.000000 10.745706 49.022602 0.000000 11.017579 45.704102 0.000000 13.731699 48.269474 0.000000 13.913318 45.121441 0.000000 13.688523 48.187061 0.000000 10.977469 45.618449 0.000000 11.013934 45.586225 0.000000 8.885427 47.371453 0.000000 8.418323 45.793004 0.000000 6.535929 47.095804 0.000000 8.416885 45.792367 0.000000 8.879661 47.372090 0.000000 8.418332 45.791379 0.000000 6.537033 47.094340 0.000000 6.964686 44.969801 0.000000 2.562619 47.068245 0.000000 4.574749 44.903582 0.000000 4.577624 47.196481 0.000000 6.971582 44.936651 0.000000 6.534435 47.059208 0.000000 4.574941 44.921380 0.000000 4.577595 47.216950 0.000000 4.577402 44.924064 0.000000 6.536891 47.061888 0.000000 4.529627 44.928389 0.000000 2.529669 47.104274 0.000000 2.379648 44.972069 0.000000 2.373963 44.927820 0.000000 2.526588 47.059854 0.000000 0.307701 45.075263 0.000000 -0.337655 47.658984 0.000000 0.296919 45.067751 0.000000 2.516860 47.051206 0.000000 0.294877 45.068483 0.000000 -0.337926 47.660162 0.000000 -1.922729 46.118396 0.000000 -2.913781 47.851531 0.000000 -1.925172 46.116040 0.000000 -0.340349 47.657801 0.000000 -6.094714 47.744097 0.000000 -4.478419 45.937398 0.000000 -4.530966 47.852866 0.000000 -1.942749 46.146864 0.000000 -2.931419 47.882348 0.000000 -4.457964 45.897948 0.000000 -4.519660 47.850547 0.000000 -4.477254 45.934828 0.000000 -2.920868 47.895910 0.000000 -8.450433 47.234729 0.000000 -6.811330 46.132757 0.000000 -6.094415 47.741091 0.000000 -4.477200 45.935100 0.000000 -6.094428 47.740964 0.000000 -6.809808 46.131945 0.000000 -6.791714 46.119362 0.000000 -8.436537 47.212777 0.000000 -8.347840 45.373884 0.000000 -13.774329 48.295370 0.000000 -11.062972 45.824727 0.000000 -10.791169 49.059645 0.000000 -8.347935 45.374325 0.000000 -8.438640 47.213121 0.000000 -11.015119 45.677335 0.000000 -10.682900 48.962237 0.000000 -11.070730 45.739170 0.000000 -8.455096 47.207278 0.000000 -11.116074 45.805617 0.000000 -13.812029 48.293058 0.000000 -13.574632 45.876414 0.000000 -19.672829 46.487155 0.000000 -15.984143 45.421646 0.000000 -16.736983 47.416761 0.000000 -16.721748 47.432205 0.000000 -15.849372 45.486386 0.000000 -13.785017 48.359009 0.000000 -13.580990 45.874781 0.000000 -13.815722 48.291685 0.000000 -15.881834 45.420326 0.000000 22.341995 44.945578 0.000000 19.576303 46.299943 0.000000 20.371118 43.744947 0.000000 20.396376 43.602313 0.000000 19.579177 46.150239 0.000000 18.166093 43.689254 0.000000 16.275052 45.648006 0.000000 18.111826 43.668554 0.000000 19.537960 46.122000 0.000000 18.135240 43.643268 0.000000 16.260338 45.586643 0.000000 15.627808 43.221362 0.000000 13.929252 45.114932 0.000000 15.626420 43.223599 0.000000 16.260807 45.588384 0.000000 10.996898 45.613890 0.000000 13.051491 42.954386 0.000000 13.931722 45.110862 0.000000 15.632032 43.216646 0.000000 13.933850 45.107069 0.000000 13.053618 42.950593 0.000000 13.073592 42.925097 0.000000 11.014753 45.581314 0.000000 10.627916 42.510806 0.000000 6.965696 44.968415 0.000000 8.687262 43.916385 0.000000 8.423574 45.782497 0.000000 10.627629 42.508530 0.000000 11.014466 45.579037 0.000000 8.686290 43.920634 0.000000 8.422556 45.789881 0.000000 8.690768 43.924413 0.000000 11.018225 45.583833 0.000000 4.573116 44.920656 0.000000 6.617450 43.032114 0.000000 6.969754 44.936535 0.000000 8.703831 43.906585 0.000000 6.970022 44.938248 0.000000 6.621247 43.033178 0.000000 6.567343 43.043525 0.000000 4.531551 44.941281 0.000000 4.649845 42.394797 0.000000 0.309595 45.073597 0.000000 2.138001 42.691151 0.000000 2.375947 44.927716 0.000000 4.643904 42.383009 0.000000 4.532091 44.929744 0.000000 2.145193 42.736777 0.000000 2.380626 44.972051 0.000000 2.143720 42.735423 0.000000 4.530596 44.928370 0.000000 2.132770 42.694277 0.000000 0.306216 45.078041 0.000000 -0.439647 42.914360 0.000000 -4.457263 45.896844 0.000000 -2.242213 44.165616 0.000000 -1.942165 46.146934 0.000000 -0.451633 42.907028 0.000000 0.296798 45.069853 0.000000 -2.221821 44.138598 0.000000 -1.923503 46.118763 0.000000 -2.224520 44.137600 0.000000 0.294096 45.068853 0.000000 -2.242611 44.165928 0.000000 -4.457662 45.897155 0.000000 -4.509319 43.109222 0.000000 -8.343133 45.376047 0.000000 -6.631188 44.344114 0.000000 -6.786279 46.120004 0.000000 -4.508740 43.140191 0.000000 -4.457603 45.928133 0.000000 -6.625077 44.326884 0.000000 -6.785140 46.114090 0.000000 -6.624061 44.338733 0.000000 -4.451275 45.932764 0.000000 -11.008122 45.663725 0.000000 -8.845796 43.505814 0.000000 -8.339586 45.372867 0.000000 -6.622707 44.337609 0.000000 -8.341137 45.358708 0.000000 -8.847923 43.491811 0.000000 -8.844929 43.504950 0.000000 -11.007569 45.662545 0.000000 -11.164477 42.593374 0.000000 -15.805430 45.356263 0.000000 -13.443039 43.896416 0.000000 -13.500214 45.787990 0.000000 -11.165416 42.602344 0.000000 -11.007156 45.671444 0.000000 -13.386673 43.849954 0.000000 -13.490398 45.768543 0.000000 -13.400200 43.878255 0.000000 -11.031433 45.713708 0.000000 -13.382210 43.859196 0.000000 -15.762821 45.289141 0.000000 -15.587361 42.496371 0.000000 -19.507135 46.137156 0.000000 -18.043568 43.413864 0.000000 -15.756842 45.314348 0.000000 -15.591633 42.498528 0.000000 -15.763654 45.291512 0.000000 -18.057368 43.399467 0.000000 -18.071533 43.413179 0.000000 -19.516764 46.146246 0.000000 -20.326087 43.608195 0.000000 -22.377553 44.955641 0.000000 -20.329062 43.782704 0.000000 -19.634050 46.354409 0.000000 27.840566 41.922837 0.000000 25.220250 43.540645 0.000000 25.632050 40.942564 0.000000 25.583717 40.944318 0.000000 25.207601 43.547804 0.000000 22.473409 41.608913 0.000000 20.394002 43.619690 0.000000 22.332014 41.432187 0.000000 22.338980 44.861839 0.000000 25.088711 43.487192 0.000000 22.395423 44.980361 0.000000 22.352629 41.550969 0.000000 18.131389 43.654117 0.000000 19.562102 41.945737 0.000000 20.362762 43.602213 0.000000 22.328844 41.428071 0.000000 20.371903 43.598656 0.000000 19.580219 41.937871 0.000000 15.632276 43.219254 0.000000 17.482214 41.403712 0.000000 18.139269 43.643758 0.000000 19.569383 41.935399 0.000000 18.139488 43.644461 0.000000 17.482575 41.404374 0.000000 17.486367 41.399554 0.000000 15.636440 43.215108 0.000000 14.922584 40.617100 0.000000 13.058356 42.946008 0.000000 14.922664 40.617421 0.000000 15.636417 43.215457 0.000000 14.938908 40.596390 0.000000 13.072827 42.923556 0.000000 12.252171 40.576125 0.000000 10.626843 42.508302 0.000000 12.252473 40.577019 0.000000 13.072145 42.924793 0.000000 12.262000 40.564727 0.000000 10.635641 42.495350 0.000000 10.247327 40.422505 0.000000 6.596004 43.022791 0.000000 8.501610 41.572929 0.000000 8.683333 43.884802 0.000000 10.246655 40.420718 0.000000 10.635259 42.493517 0.000000 8.503218 41.592118 0.000000 8.695217 43.904618 0.000000 8.506119 41.593344 0.000000 10.638155 42.494763 0.000000 8.471726 41.591744 0.000000 6.568032 43.044120 0.000000 6.159895 40.477902 0.000000 4.649635 42.394717 0.000000 6.159733 40.476857 0.000000 6.567223 43.043179 0.000000 6.159371 40.475513 0.000000 4.647964 42.392315 0.000000 3.831685 40.760315 0.000000 2.143478 42.737020 0.000000 3.820863 40.753827 0.000000 4.642202 42.383251 0.000000 3.820276 40.754526 0.000000 2.142849 42.737742 0.000000 1.977441 39.867103 0.000000 1.966255 39.826324 0.000000 2.135221 42.696785 0.000000 -0.108793 40.869774 0.000000 -0.440194 42.914408 0.000000 -0.111831 40.867371 0.000000 2.132207 42.694325 0.000000 -4.500768 43.109187 0.000000 -2.343042 41.807333 0.000000 -2.235596 44.169212 0.000000 -0.118992 40.865514 0.000000 -0.442048 42.913420 0.000000 -2.325842 41.785963 0.000000 -2.234242 44.144933 0.000000 -2.344159 41.783170 0.000000 -0.462956 42.914931 0.000000 -2.346532 41.809398 0.000000 -4.504493 43.110863 0.000000 -4.572889 40.555368 0.000000 -8.848654 43.488338 0.000000 -6.798549 41.969713 0.000000 -6.624499 44.336919 0.000000 -6.625290 44.324758 0.000000 -6.799445 41.957561 0.000000 -4.507992 43.139788 0.000000 -4.576436 40.583591 0.000000 -4.509314 43.139117 0.000000 -6.799449 41.954282 0.000000 -11.165435 42.587683 0.000000 -9.146669 41.054929 0.000000 -8.846719 43.501362 0.000000 -6.797722 41.969107 0.000000 -
[...]
<PointData Vectors='Velocity Force Displacement'>
<DataArray type='Float32' Name='Velocity' NumberOfComponents='3' format='ascii'>
1.029994 5.025994 0.000000 1.313929 6.408251 0.000000 0.342939 5.887918 0.000000 1.482773 -4.432747 0.000000 7.206957 -0.185042 0.000000 2.061944 2.145548 0.000000 1.268436 2.984937 0.000000 0.328700 2.435133 0.000000 1.411226 1.925745 0.000000 1.791375 0.432099 0.000000 -0.514558 -1.264042 0.000000 1.700091 -0.727974 0.000000 -0.471908 -1.079359 0.000000 0.668649 -0.701955 0.000000 -1.432559 0.382716 0.000000 0.769112 -0.687512 0.000000 -0.581795 -0.582251 0.000000 0.756796 -1.904494 0.000000 -0.118382 -1.014978 0.000000 -0.114808 -1.006587 0.000000 -0.112020 -0.997630 0.000000 -0.104273 -0.999495 0.000000 -0.117497 -0.998408 0.000000 -0.106123 -1.001415 0.000000 -0.191289 -1.358988 0.000000 -0.091965 -1.267010 0.000000 -0.185149 -1.199500 0.000000 -0.274334 2.104430 0.000000 -2.372755 0.365747 0.000000 -0.205745 -1.074204 0.000000 -2.399548 0.377616 0.000000 -0.887048 1.662610 0.000000 -2.418949 1.621197 0.000000 -0.619903 3.952605 0.000000 -6.028792 -0.905005 0.000000 0.419548 -5.564878 0.000000 -2.462871 1.529857 0.000000 -0.922603 1.578431 0.000000 -2.531345 2.753655 0.000000 -1.493832 1.598736 0.000000 -0.685860 2.324893 0.000000 -1.719902 2.689861 0.000000 -1.019293 6.100600 0.000000 -0.888104 6.279906 0.000000 -1.064583 6.337559 0.000000 8.288053 12.676943 0.000000 6.657523 7.436952 0.000000 9.644152 6.959899 0.000000 3.895018 7.008055 0.000000 4.761606 9.460542 0.000000 2.508922 7.373782 0.000000 1.295175 2.439038 0.000000 2.582460 3.665813 0.000000 1.081234 3.582912 0.000000 1.222499 3.826419 0.000000 0.586162 3.088284 0.000000 1.751429 3.168908 0.000000 1.594511 4.800501 0.000000 1.290746 4.775614 0.000000 1.525572 4.527173 0.000000 0.505151 2.708447 0.000000 0.343427 2.696588 0.000000 0.478932 2.553569 0.000000 1.097178 1.933324 0.000000 1.146061 1.991607 0.000000 1.102840 2.004397 0.000000 1.015584 1.846791 0.000000 1.160360 2.049146 0.000000 0.986825 2.098202 0.000000 1.370615 2.068837 0.000000 1.048908 1.602587 0.000000 1.559474 1.714789 0.000000 0.967350 -1.132203 0.000000 1.595753 -0.306437 0.000000 0.959483 -0.346073 0.000000 1.672226 0.644665 0.000000 1.054971 0.535692 0.000000 1.655936 -0.031565 0.000000 1.002468 -0.024768 0.000000 1.658069 -0.026987 0.000000 1.050041 0.532462 0.000000 0.117817 0.293770 0.000000 0.078007 0.261613 0.000000 0.115209 0.280602 0.000000 -0.041590 -1.137930 0.000000 -0.008517 -1.137426 0.000000 -0.039220 -1.110784 0.000000 -0.224270 -1.057442 0.000000 -0.387802 -1.099703 0.000000 -0.261915 -1.252224 0.000000 -0.364354 -1.401204 0.000000 -0.163501 -1.333313 0.000000 -0.278481 -1.231973 0.000000 -0.180597 -1.199174 0.000000 -0.297182 -1.257574 0.000000 -0.195286 -1.359935 0.000000 -1.008961 1.726097 0.000000 -1.617319 1.181847 0.000000 -0.972334 1.199544 0.000000 -0.841000 -0.189534 0.000000 -0.766207 -0.155423 0.000000 -0.846971 -0.094286 0.000000 -0.360813 1.285191 0.000000 -1.446668 1.261105 0.000000 -0.335124 0.379118 0.000000 -1.134832 2.520613 0.000000 -1.508217 1.965057 0.000000 -0.963492 1.721537 0.000000 -1.530296 1.188575 0.000000 -0.986202 1.675841 0.000000 -1.471051 1.891417 0.000000 -0.816115 1.381448 0.000000 -0.422473 1.973608 0.000000 -1.084500 1.941674 0.000000 -2.525587 5.485911 0.000000 -2.287203 5.747520 0.000000 -2.599329 5.773746 0.000000 -1.072644 1.922257 0.000000 -0.714175 1.939942 0.000000 -1.013561 2.442229 0.000000 0.076656 3.297260 0.000000 -2.494734 3.606648 0.000000 -1.323446 1.519887 0.000000 -3.547843 5.301222 0.000000 -3.317359 5.551028 0.000000 -3.541283 5.529031 0.000000 -4.872788 11.620128 0.000000 -6.616286 5.583851 0.000000 -3.351465 6.815881 0.000000 -2.912709 7.425646 0.000000 -3.123617 7.331089 0.000000 -2.812252 7.107333 0.000000 -3.623264 5.558313 0.000000 -3.499321 5.570350 0.000000 -3.646569 5.676304 0.000000 1.450431 4.958174 0.000000 2.319964 6.733846 0.000000 0.679577 6.223536 0.000000 1.283078 2.694443 0.000000 2.217642 2.994191 0.000000 1.314964 3.512498 0.000000 1.268613 3.723713 0.000000 0.424856 2.940765 0.000000 1.470665 2.332867 0.000000 0.718513 2.559030 0.000000 0.786842 2.624870 0.000000 0.703706 2.647062 0.000000 0.836897 2.743845 0.000000 0.866071 2.770011 0.000000 0.829520 2.779800 0.000000 0.645625 2.607269 0.000000 0.765040 2.699522 0.000000 0.668212 2.739046 0.000000 0.903331 2.571795 0.000000 0.908794 2.576559 0.000000 0.902057 2.579130 0.000000 1.578222 1.537075 0.000000 1.801388 1.709250 0.000000 1.543201 1.741571 0.000000 1.619180 1.831593 0.000000 1.668317 1.912693 0.000000 1.581798 1.898842 0.000000 1.544263 1.743339 0.000000 1.801333 1.709993 0.000000 1.663782 1.907158 0.000000 1.618690 1.760735 0.000000 1.614410 1.760128 0.000000 1.618223 1.754785 0.000000 1.701299 -0.166598 0.000000 2.257678 0.444508 0.000000 1.686680 0.550794 0.000000 2.300687 1.553855 0.000000 1.695778 0.548150 0.000000 2.803529 0.349227 0.000000 0.407854 0.893284 0.000000 0.199675 0.669929 0.000000 0.479036 0.682913 0.000000 -0.059912 -1.204107 0.000000 0.030052 -1.143355 0.000000 -0.041785 -1.139587 0.000000 0.265035 0.409516 0.000000 0.257802 0.417799 0.000000 0.264428 0.407171 0.000000 0.116489 0.283467 0.000000 0.135048 0.287101 0.000000 0.119498 0.292100 0.000000 -0.109799 -1.243950 0.000000 -0.067637 -1.208451 0.000000 -0.105011 -1.197384 0.000000 -0.917455 -0.175899 0.000000 -0.918418 -0.177208 0.000000 -0.911431 -0.184836 0.000000 -0.672755 -1.280437 0.000000 -0.507395 -1.333234 0.000000 -0.580128 -1.145137 0.000000 -0.422210 -1.164069 0.000000 -0.579052 -1.144597 0.000000 -0.508430 -1.333071 0.000000 -0.918177 -0.176617 0.000000 -0.918766 -0.176719 0.000000 -0.919058 -0.177006 0.000000 -0.971144 1.983858 0.000000 -1.295496 1.445762 0.000000 -0.737303 1.494512 0.000000 -0.901095 0.939356 0.000000 -0.896320 0.940886 0.000000 -0.898635 0.943660 0.000000 -0.674294 1.388276 0.000000 -0.918357 1.366052 0.000000 -0.699854 1.067540 0.000000 -0.856133 1.912858 0.000000 -0.922165 1.846788 0.000000 -0.865093 1.831234 0.000000 -0.942126 1.204956 0.000000 -1.028704 1.058908 0.000000 -0.871382 1.015781 0.000000 -0.899748 1.830396 0.000000 -0.865113 1.864908 0.000000 -0.914363 1.867400 0.000000 -1.623749 3.820118 0.000000 -1.914742 3.349217 0.000000 -1.537691 3.360615 0.000000 -0.867367 2.111239 0.000000 -0.854147 2.110533 0.000000 -0.862260 2.120453 0.000000 -1.237549 2.524579 0.000000 -0.965204 2.537574 0.000000 -1.229648 2.878857 0.000000 -0.709853 2.698706 0.000000 -0.750171 2.631236 0.000000 -0.671257 2.635663 0.000000 -0.383591 2.776384 0.000000 -0.297213 2.822806 0.000000 -0.357493 2.895337 0.000000 -0.565105 2.440870 0.000000 -0.558478 2.441278 0.000000 -0.562967 2.446721 0.000000 -0.964511 2.640150 0.000000 -0.511194 2.879863 0.000000 -0.932165 3.014099 0.000000 -2.370124 5.224337 0.000000 -1.115591 7.415264 0.000000 -3.866123 8.158644 0.000000 6.184650 6.694684 0.000000 6.101540 6.560073 0.000000 6.235009 6.581228 0.000000 4.766009 6.560835 0.000000 5.721502 6.698876 0.000000 5.009914 7.702336 0.000000 1.237072 2.995757 0.000000 1.083680 2.859860 0.000000 1.324174 2.859371 0.000000 2.335396 4.989250 0.000000 2.888897 5.987633 0.000000 1.617648 6.003491 0.000000 0.905021 2.558399 0.000000 0.927570 2.574127 0.000000 0.902806 2.586018 0.000000 1.047117 2.949031 0.000000 0.777347 2.705814 0.000000 0.983756 2.607420 0.000000 0.932980 2.571009 0.000000 0.950912 2.589226 0.000000 0.928912 2.595654 0.000000 0.951333 2.598139 0.000000 0.908302 2.559199 0.000000 0.963335 2.549580 0.000000 1.039293 2.486479 0.000000 1.016268 2.462738 0.000000 1.050210 2.454023 0.000000 1.001650 2.436507 0.000000 1.043463 2.470467 0.000000 0.996632 2.483500 0.000000 1.683246 1.532807 0.000000 1.787225 1.616287 0.000000 1.682562 1.652958 0.000000 1.706764 1.681674 0.000000 1.674497 1.654511 0.000000 1.713724 1.640817 0.000000 2.120797 1.218343 0.000000 2.086127 1.216268 0.000000 2.120646 1.203836 0.000000 1.652796 -0.096516 0.000000 1.852733 0.176006 0.000000 1.527503 0.201814 0.000000 2.018695 1.196586 0.000000 2.056886 1.189583 0.000000 2.038725 1.231239 0.000000 2.084393 1.250076 0.000000 2.076179 1.246724 0.000000 2.085586 1.217778 0.000000 0.543787 1.013714 0.000000 0.412932 0.842975 0.000000 0.646129 0.807058 0.000000 0.479243 0.680469 0.000000 0.644533 0.811624 0.000000 0.422598 0.848263 0.000000 0.517344 0.650112 0.000000 0.383415 0.549842 0.000000 0.495365 0.493873 0.000000 0.264900 0.406717 0.000000 0.266276 0.399567 0.000000 0.263663 0.408815 0.000000 0.250705 0.420241 0.000000 0.230816 0.414032 0.000000 0.254959 0.410457 0.000000 -0.200987 -1.233681 0.000000 -0.105171 -1.246106 0.000000 -0.165991 -1.156358 0.000000 -0.111054 -1.197579 0.000000 -0.150056 -1.207332 0.000000 -0.106601 -1.243818 0.000000 -0.920563 -0.174972 0.000000 -0.923144 -0.178919 0.000000 -0.919637 -0.178294 0.000000 -0.695481 -1.291071 0.000000 -0.312430 -1.223972 0.000000 -0.521046 -0.874793 0.000000 -0.862155 -1.014257 0.000000 -0.979538 -1.011658 0.000000 -0.923935 -1.104104 0.000000 -0.974465 -0.178934 0.000000 -1.011018 -0.239885 0.000000 -0.938943 -0.241772 0.000000 -0.883996 1.156457 0.000000 -0.846139 1.206637 0.000000 -0.904392 1.211010 0.000000 -0.950264 0.853930 0.000000 -0.869284 0.847270 0.000000 -0.904642 0.933219 0.000000 -0.924600 0.867545 0.000000 -1.006937 0.871945 0.000000 -0.967444 0.798584 0.000000 -0.907359 1.822799 0.000000 -0.965615 1.744835 0.000000 -0.867206 1.732134 0.000000 -0.834244 1.191893 0.000000 -0.826891 1.202131 0.000000 -0.846743 1.204659 0.000000 -0.919605 1.659247 0.000000 -0.909891 1.674339 0.000000 -0.930653 1.675740 0.000000 -1.023055 2.263999 0.000000 -1.141795 2.036315 0.000000 -0.885868 2.042295 0.000000 -0.887265 2.101304 0.000000 -1.123362 2.096183 0.000000 -1.003280 1.893856 0.000000 -0.922767 1.921828 0.000000 -0.947756 1.923607 0.000000 -0.936328 1.896601 0.000000 -0.862464 2.026196 0.000000 -0.862939 2.024639 0.000000 -0.860695 2.024644 0.000000 -0.884932 2.195160 0.000000 -0.925945 2.192147 0.000000 -0.900639 2.156559 0.000000 -0.696734 2.374365 0.000000 -0.670508 2.380302 0.000000 -0.686001 2.403945 0.000000 -0.638571 2.364867 0.000000 -0.619351 2.368605 0.000000 -0.632162 2.380913 0.000000 -0.540724 2.480398 0.000000 -0.425166 2.530237 0.000000 -0.528717 2.629432 0.000000 -2.659165 4.652832 0.000000 -2.701054 4.579563 0.000000 -2.622440 4.584418 0.000000 -1.101175 3.317337 0.000000 -1.258290 3.248804 0.000000 -1.089895 3.087024 0.000000 -1.948592 3.743602 0.000000 -1.215692 3.793291 0.000000 -1.656348 4.215546 0.000000 -0.909517 2.957440 0.000000 -0.819032 3.115428 0.000000 -0.981556 3.120332 0.000000 -2.917464 4.910059 0.000000 -2.957788 4.835469 0.000000 -2.869783 4.832809 0.000000 8.233364 7.060721 0.000000 6.770287 5.128168 0.000000 8.001521 5.077123 0.000000 2.319289 4.340587 0.000000 2.627694 4.731700 0.000000 2.152233 4.711731 0.000000 3.819061 5.075374 0.000000 3.413738 5.062434 0.000000 3.562375 4.715499 0.000000 2.383515 4.389741 0.000000 2.426034 4.386513 0.000000 2.397907 4.452376 0.000000 2.139291 4.356868 0.000000 2.070087 4.269660 0.000000 2.159012 4.232467 0.000000 1.968284 4.469750 0.000000 1.836238 4.376115 0.000000 1.940427 4.331951 0.000000 1.168388 2.934585 0.000000 1.096297 2.880552 0.000000 1.161179 2.872157 0.000000 0.879712 2.640866 0.000000 0.838477 2.593295 0.000000 0.892164 2.592653 0.000000 1.069988 2.635117 0.000000 0.593150 2.713647 0.000000 0.911571 2.235748 0.000000 0.891097 2.591752 0.000000 1.226456 2.589045 0.000000 0.966351 2.990975 0.000000 1.195091 2.459443 0.000000 1.195877 2.460757 0.000000 1.194660 2.460990 0.000000 1.162614 2.428446 0.000000 1.139619 2.402945 0.000000 1.165350 2.398090 0.000000 0.800826 1.565141 0.000000 0.676272 1.345643 0.000000 0.935388 1.403574 0.000000 0.926631 1.353576 0.000000 0.686941 1.300436 0.000000 0.860726 1.163732 0.000000 0.686181 1.057723 0.000000 0.860717 1.164254 0.000000 0.686691 1.299577 0.000000 0.765957 1.105441 0.000000 0.684929 1.056803 0.000000 0.785599 1.008255 0.000000 0.680659 0.963458 0.000000 0.785951 1.008506 0.000000 0.678376 1.058424 0.000000 0.513666 0.612530 0.000000 0.664370 0.897268 0.000000 0.386199 0.879219 0.000000 0.787598 1.005508 0.000000 0.679624 0.958153 0.000000 0.730974 0.878217 0.000000 0.650618 1.019852 0.000000 0.666300 1.021225 0.000000 0.658409 1.031518 0.000000 0.620857 0.815986 0.000000 0.516810 0.618687 0.000000 0.716659 0.666374 0.000000 0.388616 0.233447 0.000000 0.563824 0.468353 0.000000 0.290415 0.447260 0.000000 0.729479 0.658083 0.000000 0.515026 0.616837 0.000000 0.701877 0.451629 0.000000 0.480909 0.416218 0.000000 0.701077 0.450781 0.000000 0.514237 0.617828 0.000000 0.217869 0.716056 0.000000 0.073838 0.469368 0.000000 0.293801 0.427600 0.000000 -0.227098 -1.535279 0.000000 -0.030035 -1.553540 0.000000 -0.106108 -1.392394 0.000000 0.003298 -1.395408 0.000000 -0.114670 -1.415257 0.000000 -0.056560 -1.516015 0.000000 -0.968964 -0.407534 0.000000 -0.866947 -0.230158 0.000000 -1.059189 -0.242447 0.000000 -0.306564 -1.292841 0.000000 -0.183433 -1.275967 0.000000 -0.287102 -1.155374 0.000000 -0.492425 -0.945696 0.000000 -0.923898 -0.975846 0.000000 -0.642254 -1.307998 0.000000 -0.868037 -0.229371 0.000000 -0.968604 -0.407905 0.000000 -0.793762 -0.407190 0.000000 -0.953955 1.153241 0.000000 -0.957749 1.150271 0.000000 -0.952465 1.149131 0.000000 -0.764142 0.922203 0.000000 -0.872912 0.923514 0.000000 -0.809111 0.808262 0.000000 -1.002533 0.792381 0.000000 -0.892133 0.780760 0.000000 -0.947579 0.880787 0.000000 -0.977937 1.395002 0.000000 -0.887918 1.502447 0.000000 -1.037808 1.540637 0.000000 -0.957873 1.149097 0.000000 -0.954378 1.152930 0.000000 -0.958239 1.153862 0.000000 -0.890076 1.487057 0.000000 -0.977945 1.382182 0.000000 -0.874731 1.383793 0.000000 -0.960557 1.810116 0.000000 -0.880217 1.945191 0.000000 -1.033432 1.931990 0.000000 -1.015825 1.714447 0.000000 -0.856916 1.727798 0.000000 -0.948593 1.838984 0.000000 -0.880622 1.442007 0.000000 -0.985795 1.440356 0.000000 -0.881421 1.317435 0.000000 -0.908447 1.897558 0.000000 -0.960178 1.810715 0.000000 -0.874130 1.802620 0.000000 -0.850575 2.138092 0.000000 -0.955368 2.120447 0.000000 -0.902840 2.021614 0.000000 -0.879069 1.990439 0.000000 -0.942837 1.996149 0.000000 -0.915499 1.945833 0.000000 -0.709981 2.639592 0.000000 -0.804438 2.542034 0.000000 -0.705763 2.535371 0.000000 -0.888357 2.168374 0.000000 -0.980050 2.153475 0.000000 -0.903355 2.053437 0.000000 -0.661290 2.361610 0.000000 -0.674936 2.362481 0.000000 -0.665700 2.350563 0.000000 -0.995932 2.878367 0.000000 -1.078217 2.773159 0.000000 -0.935869 2.741974 0.000000 -0.731791 2.467357 0.000000 -0.614700 2.588624 0.000000 -0.772775 2.623357 0.000000 -1.306362 2.612345 0.000000 -1.036993 2.952873 0.000000 -1.424356 3.009073 0.000000 -3.099390 5.848437 0.000000 -3.154649 5.680502 0.000000 -2.981781 5.682887 0.000000 -1.871055 3.924670 0.000000 -1.237305 3.830175 0.000000 -1.535077 4.439651 0.000000 -2.547014 4.820355 0.000000 -2.686994 4.819318 0.000000 -2.620497 4.685493 0.000000 -3.864581 4.905480 0.000000 -4.236184 5.373983 0.000000 -4.244201 4.799347 0.000000 -3.686936 4.482806 0.000000 -3.357304 5.437523 0.000000 -4.095003 5.235915 0.000000 4.167929 6.391603 0.000000 2.857549 4.887745 0.000000 4.287084 4.594860 0.000000 0.956683 4.057154 0.000000 1.280940 4.348432 0.000000 1.030565 4.393989 0.000000 2.538820 4.632653 0.000000 2.676264 4.607358 0.000000 2.567792 4.834214 0.000000 2.712980 4.448125 0.000000 2.623588 4.468315 0.000000 2.678478 4.353289 0.000000 0.973989 4.014980 0.000000 0.997336 4.043188 0.000000 0.966954 4.055083 0.000000 1.206787 4.313811 0.000000 0.904793 4.041701 0.000000 1.240389 3.909406 0.000000 0.842256 3.352508 0.000000 1.183312 3.758406 0.000000 0.767744 3.744079 0.000000 0.689677 2.506975 0.000000 0.705800 2.507579 0.000000 0.693413 2.521145 0.000000 0.841407 2.646654 0.000000 0.827228 2.642363 0.000000 0.839735 2.628668 0.000000 1.040666 1.920156 0.000000 1.055052 1.924454 0.000000 1.043119 1.935748 0.000000 0.879038 1.859896 0.000000 1.026005 1.913876 0.000000 0.941137 2.005340 0.000000 0.962350 1.361347 0.000000 1.002227 1.480898 0.000000 0.899843 1.436254 0.000000 1.015476 1.856009 0.000000 0.629320 1.709387 0.000000 1.046146 1.454083 0.000000 0.783822 1.723795 0.000000 0.969313 1.804039 0.000000 0.762655 1.930333 0.000000 0.882946 1.519825 0.000000 0.841724 1.399263 0.000000 0.933304 1.424454 0.000000 0.786011 1.006775 0.000000 0.882590 1.108852 0.000000 0.769121 1.109360 0.000000 0.974488 1.262938 0.000000 0.890081 1.241013 0.000000 0.971356 1.150611 0.000000 0.858137 1.155339 0.000000 0.971534 1.150826 0.000000 0.889644 1.240647 0.000000 0.879984 1.113687 0.000000 0.782423 1.010076 0.000000 0.874481 1.006385 0.000000 0.783829 0.710500 0.000000 0.850216 0.808387 0.000000 0.735908 0.790690 0.000000 0.873225 1.001277 0.000000 0.782205 1.004669 0.000000 0.860340 0.895427 0.000000 0.730681 0.875599 0.000000 0.846531 0.876693 0.000000 0.766675 0.975390 0.000000 0.763829 0.587127 0.000000 0.820716 0.679378 0.000000 0.737200 0.707179 0.000000 0.496415 0.399527 0.000000 0.703278 0.513294 0.000000 0.526427 0.584427 0.000000 0.503218 0.782594 0.000000 0.333523 0.685140 0.000000 0.481036 0.607129 0.000000 0.290268 0.451490 0.000000 0.480661 0.601917 0.000000 0.215519 0.693698 0.000000 0.450477 0.642679 0.000000 0.259846 0.479173 0.000000 0.467697 0.416133 0.000000 -0.336817 -1.214480 0.000000 -0.416624 -1.262039 0.000000 -0.345197 -1.286440 0.000000 -0.410032 -1.537888 0.000000 -0.223139 -1.583083 0.000000 -0.302575 -1.337762 0.000000 -0.090588 -1.425284 0.000000 -0.302719 -1.337962 0.000000 -0.222849 -1.583094 0.000000 -0.636932 -0.862222 0.000000 -0.586708 -0.830332 0.000000 -0.628676 -0.817137 0.000000 -0.853847 -0.438104 0.000000 -0.785218 -0.340426 0.000000 -0.905038 -0.296230 0.000000 -0.756496 -0.346829 0.000000 -0.817849 -0.452815 0.000000 -0.706875 -0.437657 0.000000 -0.922325 0.733985 0.000000 -1.038766 0.717285 0.000000 -0.924890 0.598407 0.000000 -0.809696 0.805852 0.000000 -0.688034 0.840878 0.000000 -0.764226 0.921767 0.000000 -0.867161 1.133453 0.000000 -0.966246 1.104568 0.000000 -0.893410 1.052570 0.000000 -0.950313 1.097833 0.000000 -0.925633 1.115787 0.000000 -0.955711 1.137705 0.000000 -0.960910 1.372370 0.000000 -0.929389 1.409556 0.000000 -0.960659 1.404270 0.000000 -0.932875 1.326955 0.000000 -0.842152 1.342295 0.000000 -0.944432 1.405168 0.000000 -0.969591 1.161518 0.000000 -1.018326 1.125960 0.000000 -0.957455 1.087800 0.000000 -0.868614 1.748233 0.000000 -0.855693 1.762110 0.000000 -0.872139 1.767306 0.000000 -0.881135 1.370256 0.000000 -0.963316 1.314925 0.000000 -0.866366 1.290512 0.000000 -0.855321 1.761738 0.000000 -0.868436 1.747788 0.000000 -0.854209 1.742811 0.000000 -0.993969 2.166565 0.000000 -1.026604 2.141720 0.000000 -0.998609 2.131528 0.000000 -0.915688 1.945595 0.000000 -0.916276 1.945352 0.000000 -0.915208 1.946833 0.000000 -0.979388 1.833501 0.000000 -0.890822 1.808603 0.000000 -0.918329 1.910228 0.000000 -0.769303 2.576469 0.000000 -0.906622 2.440787 0.000000 -0.717094 2.377436 0.000000 -1.023431 2.138453 0.000000 -0.991201 2.162824 0.000000 -1.032605 2.176347 0.000000 -0.854921 2.607129 0.000000 -0.844722 2.613624 0.000000 -0.852860 2.627040 0.000000 -0.995414 2.988162 0.000000 -1.242467 2.768396 0.000000 -0.900964 2.659605 0.000000 -1.117544 2.798019 0.000000 -1.043867 2.863415 0.000000 -1.114200 2.881064 0.000000 -2.204156 4.531671 0.000000 -1.873160 5.093838 0.000000 -2.534481 5.111652 0.000000 -1.117743 3.324275 0.000000 -1.294691 3.331092 0.000000 -1.225311 3.156437 0.000000 -1.132294 3.209892 0.000000 -0.802298 3.125041 0.000000 -0.952004 3.514823 0.000000 -1.937502 4.972344 0.000000 -2.221928 4.489869 0.000000 -1.732458 4.400151 0.000000 -2.464986 4.309970 0.000000 -2.079074 4.823319 0.000000 -2.462940 4.895400 0.000000 -5.806864 4.646255 0.000000 -5.565909 4.382615 0.000000 -5.506060 4.700074 0.000000 -4.247032 4.999898 0.000000 -4.192631 5.071230 0.000000 -4.264355 5.058750 0.000000