<?xml version='1.0'?>
<VTKFile type='PolyData' version='0.1' byte_order='LittleEndian'><PolyData>
<Piece NumberOfPoints='9000' NumberOfVerts='0' NumberOfLines='0' NumberOfStrips='0' NumberOfPolys='3000'>
<Points>
<DataArray type='Float32' NumberOfComponents='3' format='ascii'>
10.696344 48.842212 0.000000 7.668927 49.407393 0.000000 8.842542 47.309264 0.000000 4.612643 49.784603 0.000000 6.498110 47.039225 0.000000 7.668920 49.407390 0.000000 8.842542 47.309266 0.000000 7.668925 49.407391 0.000000 6.498104 47.039230 0.000000 6.498108 47.039227 0.000000 4.612651 49.784590 0.000000 4.540073 47.208642 0.000000 1.641207 49.970384 0.000000 2.524441 47.092522 0.000000 4.612659 49.784584 0.000000 4.540077 47.208636 0.000000 4.612653 49.784573 0.000000 2.524443 47.092560 0.000000 2.524416 47.092575 0.000000 1.641268 49.970255 0.000000 -0.330795 47.697130 0.000000 -1.641207 49.970065 0.000000 -0.330785 47.697155 0.000000 1.641199 49.970070 0.000000 -0.330777 47.697120 0.000000 -1.641238 49.970252 0.000000 -2.904563 47.887860 0.000000 -4.612543 49.784678 0.000000 -2.904590 47.887821 0.000000 -1.641175 49.970337 0.000000 -2.904583 47.887848 0.000000 -4.612539 49.784666 0.000000 -4.502235 47.816945 0.000000 -7.668909 49.407416 0.000000 -6.064594 47.691180 0.000000 -4.612540 49.784673 0.000000 -4.502230 47.816953 0.000000 -4.612541 49.784668 0.000000 -6.064596 47.691179 0.000000 -6.064586 47.691182 0.000000 -7.668915 49.407417 0.000000 -8.414564 47.157919 0.000000 -10.696329 48.842226 0.000000 -8.414561 47.157920 0.000000 -7.668919 49.407416 0.000000 19.489360 46.045283 0.000000 16.617796 47.157749 0.000000 16.236985 45.503824 0.000000 16.617794 47.157749 0.000000 13.683109 48.091320 0.000000 16.236986 45.503826 0.000000 16.236988 45.503826 0.000000 13.683104 48.091323 0.000000 13.906445 45.025539 0.000000 8.842539 47.309266 0.000000 10.970886 45.523935 0.000000 10.696352 48.842213 0.000000 10.696358 48.842209 0.000000 10.970882 45.523939 0.000000 13.683092 48.091326 0.000000 13.906448 45.025538 0.000000 13.683100 48.091327 0.000000 10.970878 45.523938 0.000000 10.970885 45.523935 0.000000 8.842540 47.309265 0.000000 8.375335 45.730817 0.000000 6.498098 47.039233 0.000000 8.375338 45.730811 0.000000 8.842539 47.309265 0.000000 8.375335 45.730812 0.000000 6.498096 47.039235 0.000000 6.919145 44.913579 0.000000 2.524419 47.092592 0.000000 4.522506 44.916062 0.000000 4.540070 47.208631 0.000000 6.919145 44.913576 0.000000 6.498099 47.039227 0.000000 4.522502 44.916078 0.000000 4.540066 47.208649 0.000000 4.522504 44.916068 0.000000 6.498102 47.039227 0.000000 4.522502 44.916058 0.000000 2.524400 47.092618 0.000000 2.372434 44.961103 0.000000 2.372434 44.961093 0.000000 2.524403 47.092605 0.000000 0.306014 45.107538 0.000000 -0.330778 47.697164 0.000000 0.306002 45.107514 0.000000 2.524396 47.092584 0.000000 0.305995 45.107518 0.000000 -0.330770 47.697188 0.000000 -1.913404 46.154021 0.000000 -2.904540 47.887864 0.000000 -1.913412 46.154015 0.000000 -0.330783 47.697148 0.000000 -6.064592 47.691179 0.000000 -4.428347 45.902343 0.000000 -4.502225 47.816956 0.000000 -1.913409 46.154033 0.000000 -2.904546 47.887892 0.000000 -4.428349 45.902329 0.000000 -4.502230 47.816941 0.000000 -4.428349 45.902336 0.000000 -2.904556 47.887874 0.000000 -8.414558 47.157919 0.000000 -6.762819 46.074826 0.000000 -6.064584 47.691184 0.000000 -4.428345 45.902353 0.000000 -6.064588 47.691177 0.000000 -6.762818 46.074826 0.000000 -6.762815 46.074829 0.000000 -8.414556 47.157918 0.000000 -8.314088 45.319629 0.000000 -13.683086 48.091337 0.000000 -10.982822 45.608579 0.000000 -10.696343 48.842222 0.000000 -8.314086 45.319633 0.000000 -8.414557 47.157921 0.000000 -10.982823 45.608577 0.000000 -10.696338 48.842227 0.000000 -10.982826 45.608576 0.000000 -8.414557 47.157922 0.000000 -10.982818 45.608579 0.000000 -13.683094 48.091338 0.000000 -13.441469 45.675069 0.000000 -19.489356 46.045283 0.000000 -15.740974 45.213944 0.000000 -16.617796 47.157753 0.000000 -16.617794 47.157753 0.000000 -15.740976 45.213946 0.000000 -13.683104 48.091330 0.000000 -13.441466 45.675069 0.000000 -13.683099 48.091335 0.000000 -15.740978 45.213945 0.000000 22.286956 44.758159 0.000000 19.489359 46.045281 0.000000 20.345686 43.510237 0.000000 20.345687 43.510236 0.000000 19.489359 46.045282 0.000000 18.114352 43.562820 0.000000 16.236987 45.503824 0.000000 18.114353 43.562820 0.000000 19.489359 46.045283 0.000000 18.114354 43.562820 0.000000 16.236988 45.503823 0.000000 15.607509 43.137706 0.000000 13.906445 45.025539 0.000000 15.607510 43.137706 0.000000 16.236988 45.503825 0.000000 10.970879 45.523938 0.000000 13.029586 42.867660 0.000000 13.906446 45.025538 0.000000 15.607511 43.137706 0.000000 13.906447 45.025537 0.000000 13.029583 42.867661 0.000000 13.029587 42.867659 0.000000 10.970881 45.523934 0.000000 10.583984 42.453362 0.000000 6.919141 44.913583 0.000000 8.642761 43.865298 0.000000 8.375331 45.730812 0.000000 10.583987 42.453359 0.000000 10.970880 45.523932 0.000000 8.642756 43.865305 0.000000 8.375330 45.730818 0.000000 8.642760 43.865301 0.000000 10.970882 45.523934 0.000000 4.522490 44.916086 0.000000 6.551745 43.012062 0.000000 6.919138 44.913577 0.000000 8.642759 43.865299 0.000000 6.919137 44.913585 0.000000 6.551742 43.012069 0.000000 6.551740 43.012065 0.000000 4.522484 44.916092 0.000000 4.631967 42.369632 0.000000 0.306007 45.107557 0.000000 2.133465 42.725159 0.000000 2.372428 44.961104 0.000000 4.631966 42.369630 0.000000 4.522487 44.916070 0.000000 2.133474 42.725180 0.000000 2.372428 44.961121 0.000000 2.133467 42.725164 0.000000 4.522491 44.916063 0.000000 2.133455 42.725171 0.000000 0.305996 45.107579 0.000000 -0.439294 42.944284 0.000000 -4.428334 45.902334 0.000000 -2.211490 44.173053 0.000000 -1.913393 46.154049 0.000000 -0.439296 42.944283 0.000000 0.305991 45.107555 0.000000 -2.211474 44.173065 0.000000 -1.913397 46.154036 0.000000 -2.211487 44.173055 0.000000 0.305983 45.107537 0.000000 -2.211495 44.173072 0.000000 -4.428326 45.902341 0.000000 -4.477267 43.114820 0.000000 -8.314086 45.319629 0.000000 -6.594567 44.300204 0.000000 -6.762811 46.074832 0.000000 -4.477268 43.114824 0.000000 -4.428323 45.902365 0.000000 -6.594563 44.300199 0.000000 -6.762812 46.074826 0.000000 -6.594569 44.300197 0.000000 -4.428330 45.902359 0.000000 -10.982820 45.608576 0.000000 -8.818752 43.452263 0.000000 -8.314081 45.319635 0.000000 -6.594563 44.300209 0.000000 -8.314082 45.319628 0.000000 -8.818753 43.452261 0.000000 -8.818749 43.452267 0.000000 -10.982819 45.608573 0.000000 -11.137557 42.539250 0.000000 -15.740978 45.213945 0.000000 -13.360188 43.784355 0.000000 -13.441468 45.675068 0.000000 -11.137554 42.539252 0.000000 -10.982819 45.608577 0.000000 -13.360191 43.784354 0.000000 -13.441468 45.675068 0.000000 -13.360190 43.784355 0.000000 -10.982818 45.608579 0.000000 -13.360186 43.784355 0.000000 -15.740977 45.213944 0.000000 -15.565063 42.421163 0.000000 -19.489356 46.045283 0.000000 -18.032009 43.318654 0.000000 -15.740976 45.213944 0.000000 -15.565061 42.421164 0.000000 -15.740977 45.213942 0.000000 -18.032009 43.318654 0.000000 -18.032008 43.318654 0.000000 -19.489356 46.045282 0.000000 -20.287385 43.503653 0.000000 -22.286954 44.758159 0.000000 -20.287384 43.503654 0.000000 -19.489356 46.045281 0.000000 27.618254 41.680117 0.000000 25.000016 43.301266 0.000000 25.408492 40.702663 0.000000 25.408492 40.702663 0.000000 25.000016 43.301266 0.000000 22.290167 41.328502 0.000000 20.345686 43.510236 0.000000 22.290168 41.328501 0.000000 22.286956 44.758160 0.000000 25.000017 43.301266 0.000000 22.286955 44.758160 0.000000 22.290168 41.328502 0.000000 18.114353 43.562820 0.000000 19.544528 41.853999 0.000000 20.345687 43.510236 0.000000 22.290168 41.328501 0.000000 20.345686 43.510236 0.000000 19.544527 41.853999 0.000000 15.607508 43.137706 0.000000 17.457844 41.322599 0.000000 18.114354 43.562820 0.000000 19.544528 41.853999 0.000000 18.114353 43.562819 0.000000 17.457843 41.322600 0.000000 17.457844 41.322599 0.000000 15.607510 43.137704 0.000000 14.894315 40.539481 0.000000 13.029581 42.867660 0.000000 14.894317 40.539479 0.000000 15.607511 43.137705 0.000000 14.894319 40.539479 0.000000 13.029584 42.867657 0.000000 12.207668 40.520609 0.000000 10.583979 42.453363 0.000000 12.207670 40.520606 0.000000 13.029585 42.867658 0.000000 12.207671 40.520605 0.000000 10.583981 42.453360 0.000000 10.192873 40.381001 0.000000 6.551737 43.012074 0.000000 8.450934 41.554276 0.000000 8.642754 43.865299 0.000000 10.192876 40.380997 0.000000 10.583982 42.453357 0.000000 8.450927 41.554283 0.000000 8.642754 43.865305 0.000000 8.450931 41.554280 0.000000 10.583986 42.453358 0.000000 8.450932 41.554276 0.000000 6.551731 43.012079 0.000000 6.135687 40.447273 0.000000 4.631965 42.369642 0.000000 6.135687 40.447266 0.000000 6.551731 43.012068 0.000000 6.135685 40.447267 0.000000 4.631960 42.369648 0.000000 3.809081 40.741045 0.000000 2.133464 42.725193 0.000000 3.809083 40.741037 0.000000 4.631958 42.369635 0.000000 3.809079 40.741041 0.000000 2.133452 42.725210 0.000000 1.965252 39.855303 0.000000 1.965250 39.855298 0.000000 2.133451 42.725197 0.000000 -0.110267 40.897848 0.000000 -0.439290 42.944298 0.000000 -0.110275 40.897836 0.000000 2.133444 42.725181 0.000000 -4.477261 43.114823 0.000000 -2.319991 41.811834 0.000000 -2.211478 44.173090 0.000000 -0.110277 40.897839 0.000000 -0.439292 42.944308 0.000000 -2.319984 41.811839 0.000000 -2.211478 44.173081 0.000000 -2.319990 41.811831 0.000000 -0.439300 42.944295 0.000000 -2.319994 41.811849 0.000000 -4.477256 43.114830 0.000000 -4.547252 40.559773 0.000000 -8.818749 43.452261 0.000000 -6.768781 41.933226 0.000000 -6.594553 44.300214 0.000000 -6.594555 44.300201 0.000000 -6.768782 41.933222 0.000000 -4.477267 43.114836 0.000000 -4.547253 40.559777 0.000000 -4.477255 43.114846 0.000000 -6.768776 41.933224 0.000000 -11.137556 42.539250 0.000000 -9.119097 41.005976 0.000000 -8.818743 43.452270 0.000000 -6.768778 41.933234 0.000000 -
[...]
<PointData Vectors='Velocity Force Displacement'>
<DataArray type='Float32' Name='Velocity' NumberOfComponents='3' format='ascii'>
-0.247681 -0.288668 0.000000 -0.207336 -0.524027 0.000000 -0.132989 -0.441981 0.000000 -0.136872 -0.642430 0.000000 -0.091948 -0.585990 0.000000 -0.205144 -0.527416 0.000000 -0.136659 -0.441594 0.000000 -0.207262 -0.527357 0.000000 -0.095250 -0.581853 0.000000 -0.094930 -0.587306 0.000000 -0.128340 -0.649181 0.000000 -0.052132 -0.666239 0.000000 -0.053580 -0.939640 0.000000 0.012001 -0.791341 0.000000 -0.132390 -0.658869 0.000000 -0.049988 -0.664130 0.000000 -0.138304 -0.654977 0.000000 0.004305 -0.783596 0.000000 0.003052 -0.776731 0.000000 -0.047507 -0.961829 0.000000 -0.000778 -0.888383 0.000000 -0.084654 -0.996391 0.000000 0.003470 -0.890598 0.000000 -0.234758 -0.986449 0.000000 0.004867 -0.896128 0.000000 0.073076 -0.958872 0.000000 0.021555 -0.780912 0.000000 0.153173 -0.646135 0.000000 0.016136 -0.784488 0.000000 0.081509 -0.939253 0.000000 0.017406 -0.782534 0.000000 0.157665 -0.649436 0.000000 0.065205 -0.670389 0.000000 0.216980 -0.523262 0.000000 0.108175 -0.598808 0.000000 0.155187 -0.646565 0.000000 0.066620 -0.673585 0.000000 0.157367 -0.650695 0.000000 0.103568 -0.597898 0.000000 0.110439 -0.597849 0.000000 0.217652 -0.521819 0.000000 0.130235 -0.480350 0.000000 0.259859 -0.293508 0.000000 0.129651 -0.480139 0.000000 0.215297 -0.523152 0.000000 0.049167 0.021208 0.000000 -0.017938 0.031233 0.000000 0.026398 0.030359 0.000000 -0.020186 0.031411 0.000000 -0.138283 -0.032120 0.000000 0.027887 0.031922 0.000000 0.028455 0.032171 0.000000 -0.140727 -0.030637 0.000000 0.022970 -0.026050 0.000000 -0.138641 -0.440388 0.000000 -0.022108 -0.225337 0.000000 -0.246971 -0.288183 0.000000 -0.246541 -0.287484 0.000000 -0.020747 -0.223287 0.000000 -0.147067 -0.031918 0.000000 0.023840 -0.025476 0.000000 -0.143277 -0.029843 0.000000 -0.023534 -0.223098 0.000000 -0.023633 -0.223536 0.000000 -0.138907 -0.442667 0.000000 -0.061999 -0.452375 0.000000 -0.096518 -0.584247 0.000000 -0.060800 -0.456115 0.000000 -0.136006 -0.443655 0.000000 -0.061989 -0.456626 0.000000 -0.095123 -0.583988 0.000000 -0.033323 -0.532598 0.000000 -0.000085 -0.776591 0.000000 -0.025693 -0.655935 0.000000 -0.049995 -0.666729 0.000000 -0.036742 -0.531399 0.000000 -0.089979 -0.584924 0.000000 -0.023873 -0.652548 0.000000 -0.056030 -0.664906 0.000000 -0.020079 -0.653340 0.000000 -0.091960 -0.587448 0.000000 -0.020555 -0.656089 0.000000 -0.007047 -0.771619 0.000000 -0.008384 -0.718698 0.000000 -0.009938 -0.724904 0.000000 0.000803 -0.780418 0.000000 0.005851 -0.760983 0.000000 -0.000770 -0.889607 0.000000 0.004392 -0.758483 0.000000 -0.010925 -0.774627 0.000000 -0.001093 -0.762576 0.000000 -0.001718 -0.882323 0.000000 -0.004201 -0.768789 0.000000 0.025119 -0.781375 0.000000 -0.006710 -0.768626 0.000000 -0.006439 -0.891549 0.000000 0.106574 -0.597730 0.000000 0.025370 -0.668108 0.000000 0.071769 -0.669711 0.000000 -0.002487 -0.768188 0.000000 0.028625 -0.781115 0.000000 0.022000 -0.670030 0.000000 0.070090 -0.671701 0.000000 0.026149 -0.670888 0.000000 0.026349 -0.780249 0.000000 0.131540 -0.478317 0.000000 0.070795 -0.560120 0.000000 0.106741 -0.597765 0.000000 0.025577 -0.666797 0.000000 0.108416 -0.600240 0.000000 0.070065 -0.557819 0.000000 0.069219 -0.557930 0.000000 0.134958 -0.478431 0.000000 0.046001 -0.456194 0.000000 0.153093 -0.022249 0.000000 0.026654 -0.227022 0.000000 0.259205 -0.292433 0.000000 0.045469 -0.453201 0.000000 0.134078 -0.478674 0.000000 0.028966 -0.227977 0.000000 0.258737 -0.293115 0.000000 0.027204 -0.227839 0.000000 0.130781 -0.480435 0.000000 0.028123 -0.226758 0.000000 0.148717 -0.019545 0.000000 0.012401 -0.042486 0.000000 -0.045492 0.021710 0.000000 -0.030745 0.034471 0.000000 0.014874 0.037918 0.000000 0.018117 0.037773 0.000000 -0.032269 0.034757 0.000000 0.142529 -0.023011 0.000000 0.013258 -0.043132 0.000000 0.146077 -0.021075 0.000000 -0.032431 0.034298 0.000000 0.047945 -0.001501 0.000000 0.050693 0.018382 0.000000 0.049753 0.005270 0.000000 0.050298 0.004492 0.000000 0.049870 0.019843 0.000000 0.056826 0.016120 0.000000 0.029659 0.031098 0.000000 0.057247 0.017186 0.000000 0.049453 0.020950 0.000000 0.057596 0.017101 0.000000 0.028424 0.030040 0.000000 0.076020 0.004295 0.000000 0.023337 -0.025443 0.000000 0.076343 0.004946 0.000000 0.028147 0.032084 0.000000 -0.026547 -0.220557 0.000000 0.098269 -0.068134 0.000000 0.021785 -0.027030 0.000000 0.076690 0.004092 0.000000 0.022605 -0.025302 0.000000 0.097929 -0.068448 0.000000 0.098934 -0.070047 0.000000 -0.025893 -0.220283 0.000000 0.100316 -0.212998 0.000000 -0.034659 -0.534374 0.000000 0.016786 -0.395138 0.000000 -0.062626 -0.454804 0.000000 0.099457 -0.215371 0.000000 -0.027309 -0.223680 0.000000 0.017950 -0.391951 0.000000 -0.064346 -0.452510 0.000000 0.019529 -0.394079 0.000000 -0.027271 -0.224041 0.000000 -0.027229 -0.651364 0.000000 0.016461 -0.514747 0.000000 -0.036027 -0.532715 0.000000 0.014737 -0.393255 0.000000 -0.038706 -0.531753 0.000000 0.022090 -0.514309 0.000000 0.018892 -0.514072 0.000000 -0.028801 -0.644471 0.000000 0.016419 -0.585680 0.000000 0.001362 -0.753535 0.000000 0.007951 -0.679018 0.000000 -0.010651 -0.717789 0.000000 0.020681 -0.588714 0.000000 -0.028220 -0.655049 0.000000 0.002784 -0.669812 0.000000 -0.007736 -0.715623 0.000000 0.000230 -0.671325 0.000000 -0.026698 -0.654956 0.000000 0.000530 -0.672917 0.000000 0.003498 -0.748780 0.000000 0.002897 -0.692747 0.000000 0.026694 -0.671013 0.000000 0.001621 -0.709783 0.000000 -0.000019 -0.769001 0.000000 0.007327 -0.688845 0.000000 0.003468 -0.755154 0.000000 0.010064 -0.706482 0.000000 -0.000974 -0.768741 0.000000 0.010270 -0.705653 0.000000 0.001661 -0.759609 0.000000 0.006488 -0.697359 0.000000 0.026278 -0.670204 0.000000 0.008489 -0.613661 0.000000 0.047534 -0.455685 0.000000 0.022242 -0.544037 0.000000 0.070109 -0.556910 0.000000 0.007473 -0.614283 0.000000 0.028978 -0.662918 0.000000 0.022528 -0.547029 0.000000 0.067823 -0.559908 0.000000 0.023230 -0.548548 0.000000 0.029617 -0.664496 0.000000 0.033703 -0.224031 0.000000 -0.035341 -0.374906 0.000000 0.048189 -0.453314 0.000000 0.023898 -0.542932 0.000000 0.047301 -0.454687 0.000000 -0.032542 -0.374597 0.000000 -0.034706 -0.372198 0.000000 0.032689 -0.225257 0.000000 -0.099104 -0.172458 0.000000 -0.032159 0.033674 0.000000 -0.067857 -0.042549 0.000000 0.012959 -0.042738 0.000000 -0.099303 -0.172870 0.000000 0.032404 -0.222917 0.000000 -0.067725 -0.043362 0.000000 0.013607 -0.043791 0.000000 -0.069132 -0.041974 0.000000 0.030335 -0.225225 0.000000 -0.066274 -0.042140 0.000000 -0.032486 0.033288 0.000000 -0.084682 0.001092 0.000000 -0.046350 0.021345 0.000000 -0.055444 0.016444 0.000000 -0.032369 0.034251 0.000000 -0.084882 0.001196 0.000000 -0.033439 0.032753 0.000000 -0.056664 0.016119 0.000000 -0.055194 0.015602 0.000000 -0.046586 0.019860 0.000000 -0.047808 0.004527 0.000000 -0.045205 -0.001807 0.000000 -0.047348 0.005304 0.000000 -0.047566 0.018331 0.000000 0.012039 -0.003849 0.000000 0.026973 -0.005463 0.000000 0.015550 -0.004746 0.000000 0.015847 -0.005015 0.000000 0.027081 -0.005603 0.000000 0.030922 -0.005649 0.000000 0.049672 0.004710 0.000000 0.031690 -0.005600 0.000000 0.047911 -0.001661 0.000000 0.027511 -0.005790 0.000000 0.047935 -0.001764 0.000000 0.031332 -0.005388 0.000000 0.058403 0.016007 0.000000 0.053620 0.000002 0.000000 0.050287 0.004248 0.000000 0.031962 -0.005646 0.000000 0.049973 0.004359 0.000000 0.053523 -0.000238 0.000000 0.076268 0.004593 0.000000 0.076276 -0.003365 0.000000 0.057997 0.016356 0.000000 0.054339 0.000214 0.000000 0.058452 0.015632 0.000000 0.075240 -0.003782 0.000000 0.076338 -0.003578 0.000000 0.076866 0.002738 0.000000 0.116027 -0.034708 0.000000 0.096293 -0.067681 0.000000 0.116791 -0.035335 0.000000 0.077099 0.002968 0.000000 0.117823 -0.035939 0.000000 0.096652 -0.069490 0.000000 0.147656 -0.113657 0.000000 0.099179 -0.212073 0.000000 0.147057 -0.113647 0.000000 0.097300 -0.070597 0.000000 0.147545 -0.115218 0.000000 0.097762 -0.211814 0.000000 0.151414 -0.217494 0.000000 0.019407 -0.515279 0.000000 0.103938 -0.351116 0.000000 0.013446 -0.394461 0.000000 0.151371 -0.217818 0.000000 0.096931 -0.213926 0.000000 0.104375 -0.350218 0.000000 0.015168 -0.388962 0.000000 0.105509 -0.351234 0.000000 0.097585 -0.213692 0.000000 0.101054 -0.351643 0.000000 0.015801 -0.509489 0.000000 0.102493 -0.463155 0.000000 0.017034 -0.583977 0.000000 0.100919 -0.469700 0.000000 0.015866 -0.514380 0.000000 0.097273 -0.466018 0.000000 0.018748 -0.587724 0.000000 0.049899 -0.574520 0.000000 0.003482 -0.673329 0.000000 0.047801 -0.576605 0.000000 0.017364 -0.592127 0.000000 0.048037 -0.573986 0.000000 0.000977 -0.665441 0.000000 0.038424 -0.597089 0.000000 0.036034 -0.596905 0.000000 -0.000687 -0.666915 0.000000 0.008595 -0.644004 0.000000 0.003422 -0.691570 0.000000 0.005556 -0.642903 0.000000 -0.003671 -0.673900 0.000000 0.010388 -0.611880 0.000000 -0.004745 -0.639755 0.000000 0.012434 -0.696643 0.000000 0.005326 -0.642512 0.000000 0.000307 -0.688211 0.000000 -0.000732 -0.641480 0.000000 0.009728 -0.707145 0.000000 -0.002416 -0.645786 0.000000 0.002854 -0.684710 0.000000 -0.003496 -0.640150 0.000000 0.010862 -0.610173 0.000000 -0.058914 -0.540973 0.000000 -0.029810 -0.374138 0.000000 -0.054641 -0.470897 0.000000 0.022804 -0.542358 0.000000 0.026428 -0.545928 0.000000 -0.052170 -0.472151 0.000000 0.006585 -0.613465 0.000000 -0.060014 -0.539292 0.000000 0.009749 -0.606879 0.000000 -0.052736 -0.473818 0.000000 -0.095030 -0.172028 0.000000 -0.125256 -0.293922 0.000000 -0.030413 -0.370281 0.000000 -0.053024 -0.470126 0.000000 -0.031929 -0.375754 0.000000 -0.124490 -0.296733 0.000000 -0.126194 -0.291552 0.000000 -0.095414 -0.173385 0.000000 -0.153980 -0.153211 0.000000 -0.086456 -0.000091 0.000000 -0.124887 -0.060509 0.000000 -0.066194 -0.042242 0.000000 -0.066003 -0.044670 0.000000 -0.124696 -0.060684 0.000000 -0.098157 -0.170838 0.000000 -0.154589 -0.152768 0.000000 -0.095561 -0.169691 0.000000 -0.125636 -0.061596 0.000000 -0.123877 -0.061166 0.000000 -0.085044 -0.000851 0.000000 -0.105491 -0.029835 0.000000 -0.104680 -0.029275 0.000000 -0.085146 -0.000727 0.000000 -0.072648 -0.005903 0.000000 -0.056806 0.015595 0.000000 -0.072215 -0.005369 0.000000 -0.083563 0.001021 0.000000 -0.071886 -0.005562 0.000000 -0.056709 0.014685 0.000000 -0.051389 -0.000212 0.000000 -0.047662 0.004373 0.000000 -0.050899 -0.000196 0.000000 -0.056010 0.015280 0.000000 -0.026061 -0.005450 0.000000 -0.032316 -0.005167 0.000000 -0.045330 -0.002038 0.000000 -0.050588 -0.000752 0.000000 -0.047514 0.004338 0.000000 -0.032728 -0.005168 0.000000 -0.045289 -0.001605 0.000000 -0.032528 -0.005203 0.000000 -0.047239 0.004771 0.000000 -0.031818 -0.005170 0.000000 -0.025779 -0.005492 0.000000 -0.015244 -0.004980 0.000000 -0.011572 -0.003667 0.000000 -0.015007 -0.004790 0.000000 -0.025647 -0.005234 0.000000 0.001249 -0.000647 0.000000 0.004206 -0.001671 0.000000 0.002885 -0.001227 0.000000 0.015354 -0.004736 0.000000 0.006080 -0.002472 0.000000 0.011859 -0.003694 0.000000 0.011669 -0.003530 0.000000 0.006006 -0.002356 0.000000 0.004390 -0.001770 0.000000 0.002921 -0.001256 0.000000 0.004306 -0.001725 0.000000 0.005840 -0.002379 0.000000 0.006134 -0.002463 0.000000 0.015467 -0.004802 0.000000 0.013996 -0.005156 0.000000 0.031071 -0.005685 0.000000 0.014199 -0.005303 0.000000 0.015694 -0.004870 0.000000 0.014519 -0.005398 0.000000 0.031340 -0.005924 0.000000 0.029878 -0.009599 0.000000 0.074265 -0.003896 0.000000 0.052188 -0.011767 0.000000 0.054481 -0.000445 0.000000 0.030449 -0.009941 0.000000 0.031688 -0.005520 0.000000 0.050711 -0.011741 0.000000 0.053990 -0.000713 0.000000 0.051711 -0.011044 0.000000 0.031869 -0.005606 0.000000 0.113150 -0.035010 0.000000 0.083794 -0.024836 0.000000 0.076274 -0.004642 0.000000 0.053184 -0.012302 0.000000 0.075606 -0.005011 0.000000 0.082995 -0.023868 0.000000 0.084205 -0.024847 0.000000 0.115395 -0.036815 0.000000 0.103900 -0.050139 0.000000 0.105088 -0.050942 0.000000 0.115535 -0.037923 0.000000 0.139117 -0.086260 0.000000 0.144911 -0.112787 0.000000 0.140167 -0.085929 0.000000 0.116034 -0.036842 0.000000 0.140034 -0.087516 0.000000 0.146504 -0.115322 0.000000 0.169169 -0.159003 0.000000 0.149622 -0.215715 0.000000 0.169085 -0.160991 0.000000 0.145154 -0.116247 0.000000 0.100264 -0.465010 0.000000 0.165933 -0.293696 0.000000 0.099510 -0.349529 0.000000 0.169540 -0.162495 0.000000 0.151075 -0.218782 0.000000 0.166274 -0.291646 0.000000 0.100413 -0.348295 0.000000 0.168058 -0.294035 0.000000 0.150683 -0.217279 0.000000 0.163927 -0.295327 0.000000 0.097886 -0.463085 0.000000 0.156396 -0.368662 0.000000 0.037978 -0.593455 0.000000 0.107829 -0.491555 0.000000 0.050690 -0.573424 0.000000 0.156317 -0.369491 0.000000 0.099090 -0.464263 0.000000 0.109535 -0.491902 0.000000 0.049998 -0.572448 0.000000 0.104933 -0.493687 0.000000 0.097500 -0.464616 0.000000 0.103572 -0.491003 0.000000 0.036377 -0.591726 0.000000 0.043940 -0.524706 0.000000 0.045961 -0.526506 0.000000 0.036949 -0.597235 0.000000 0.005534 -0.576147 0.000000 0.006373 -0.638717 0.000000 0.002551 -0.577406 0.000000 0.034455 -0.596757 0.000000 -0.055324 -0.537692 0.000000 -0.042614 -0.573284 0.000000 -0.001746 -0.637875 0.000000 0.001826 -0.581682 0.000000 0.006207 -0.635657 0.000000 -0.040298 -0.570248 0.000000 -0.003650 -0.640808 0.000000 -0.043952 -0.571276 0.000000 0.001394 -0.640593 0.000000 -0.045801 -0.572571 0.000000 -0.055746 -0.537856 0.000000 -0.111669 -0.467329 0.000000 -0.122919 -0.294536 0.000000 -0.146514 -0.378169 0.000000 -0.048972 -0.466284 0.000000 -0.108717 -0.466814 0.000000 -0.055992 -0.536151 0.000000 -0.140253 -0.380369 0.000000 -0.050119 -0.472257 0.000000 -0.145628 -0.381988 0.000000 -0.060627 -0.538117 0.000000 -0.150506 -0.152699 0.000000 -0.170786 -0.228867 0.000000 -0.122853 -0.289931 0.000000 -0.147278 -0.377269 0.000000 -0.122907 -0.292735 0.000000 -0.170020 -0.228154 0.000000 -0.169984 -0.227912 0.000000 -0.150361 -0.152211 0.000000 -0.161984 -0.153757 0.000000 -0.107112 -0.030634 0.000000 -0.145143 -0.088387 0.000000 -0.124032 -0.061189 0.000000 -0.123932 -0.062985 0.000000 -0.144953 -0.088665 0.000000 -0.153188 -0.151437 0.000000 -0.161436 -0.152263 0.000000 -0.151509 -0.150684 0.000000 -0.146188 -0.089997 0.000000 -0.143011 -0.087781 0.000000 -0.105974 -0.031960 0.000000 -0.099661 -0.047112 0.000000 -0.072086 -0.006140 0.000000 -0.077603 -0.023217 0.000000 -0.103496 -0.030081 0.000000 -0.099201 -0.045839 0.000000 -0.105314 -0.031260 0.000000 -0.078356 -0.023755 0.000000 -0.032666 -0.005208 0.000000 -0.047532 -0.011681 0.000000 -0.051024 -0.000870 0.000000 -0.077124 -0.022591 0.000000 -0.071288 -0.007075 0.000000 -0.048789 -0.012386 0.000000 -0.050998 -0.000567 0.000000 -0.047870 -0.012208 0.000000 -0.070547 -0.005835 0.000000 -0.015044 -0.004902 0.000000 -0.022249 -0.007578 0.000000 -0.032254 -0.005384 0.000000 -0.046433 -0.012110 0.000000 -0.032187 -0.005190 0.000000 -0.022803 -0.007968 0.000000 -0.021714 -0.007626 0.000000 -0.014986 -0.004782 0.000000 -0.009950 -0.004058 0.000000 -0.004185 -0.001688 0.000000 -0.006401 -0.002459 0.000000 -0.011156 -0.003461 0.000000 -0.009822 -0.003891 0.000000 -0.014742 -0.004734 0.000000 -0.006486 -0.002512 0.000000 -0.011407 -0.003573 0.000000 -0.006470 -0.002562 0.000000 -0.014677 -0.004744 0.000000 -0.003986 -0.001582 0.000000 -0.001162 -0.000603 0.000000 -0.002746 -0.001217 0.000000 -0.006218 -0.002481 0.000000 -0.004085 -0.001633 0.000000 -0.002821 -0.001275 0.000000 0.000295 -0.000181 0.000000 0.001151 -0.000586 0.000000 0.000681 -0.000373 0.000000 0.005750 -0.002352 0.000000 0.001968 -0.000962 0.000000 0.002901 -0.001225 0.000000 0.002820 -0.001201 0.000000 0.001915 -0.000924 0.000000 0.001212 -0.000629 0.000000 0.000711 -0.000391 0.000000 0.001176 -0.000622 0.000000 0.001852 -0.000932 0.000000 0.013658 -0.005139 0.000000 0.005348 -0.002549 0.000000 0.006072 -0.002434 0.000000 0.001997 -0.000984 0.000000 0.005828 -0.002389 0.000000 0.005212 -0.002437 0.000000 0.005377 -0.002519 0.000000 0.013884 -0.005294 0.000000 0.010310 -0.004649 0.000000 0.010508 -0.004848 0.000000 0.014147 -0.005413 0.000000 0.019932 -0.009194 0.000000 0.029613 -0.009582 0.000000 0.020332 -0.009131 0.000000 0.014437 -0.005373 0.000000 0.020609 -0.009391 0.000000 0.029965 -0.009788 0.000000 0.037114 -0.014562 0.000000 0.051401 -0.012260 0.000000 0.037564 -0.014447 0.000000 0.030276 -0.009842 0.000000 0.103032 -0.050268 0.000000 0.062660 -0.028440 0.000000 0.082768 -0.025769 0.000000 0.038087 -0.014631 0.000000 0.051796 -0.012588 0.000000 0.061254 -0.028025 0.000000 0.082006 -0.024427 0.000000 0.062056 -0.028230 0.000000 0.052621 -0.012080 0.000000 0.062573 -0.028732 0.000000 0.102807 -0.050397 0.000000 0.080907 -0.048869 0.000000 0.167544 -0.158882 0.000000 0.121117 -0.094503 0.000000 0.138734 -0.087148 0.000000 0.081885 -0.049115 0.000000 0.103234 -0.051534 0.000000 0.119650 -0.093008 0.000000 0.138500 -0.085968 0.000000 0.120130 -0.093527 0.000000 0.104419 -0.051030 0.000000 0.121925 -0.094914 0.000000 0.167561 -0.159327 0.000000 0.146490 -0.152726 0.000000 0.158511 -0.366744 0.000000 0.166642 -0.240418 0.000000 0.163998 -0.294525 0.000000 0.147699 -0.153304 0.000000 0.167500 -0.161636 0.000000 0.167286 -0.236558 0.000000 0.163805 -0.289635 0.000000 0.167662 -0.237881 0.000000 0.167848 -0.162092 0.000000 0.166312 -0.237786 0.000000 0.152855 -0.364350 0.000000 0.138212 -0.340754 0.000000 0.108131 -0.489234 0.000000 0.137093 -0.341839 0.000000 0.152843 -0.368256 0.000000 0.135086 -0.340824 0.000000 0.104513 -0.484017 0.000000 0.083575 -0.433523 0.000000 0.048408 -0.522921 0.000000 0.081599 -0.435115 0.000000 0.102490 -0.489461 0.000000 0.080548 -0.433177 0.000000 0.045183 -0.519359 0.000000 0.032028 -0.455173 0.000000 -0.038385 -0.569276 0.000000 -0.020379 -0.506684 0.000000 0.003586 -0.578631 0.000000 0.031506 -0.456586 0.000000 0.043513 -0.523612 0.000000 -0.017520 -0.504303 0.000000 0.007797 -0.574474 0.000000 -0.018835 -0.505316 0.000000 0.043654 -0.523684 0.000000 -0.022005 -0.503395 0.000000 -0.043559 -0.561048 0.000000 -0.074982 -0.480299 0.000000 -0.106176 -0.465112 0.000000 -0.075888 -0.480411 0.000000 -0.046044 -0.569350 0.000000 -0.077992 -0.477719 0.000000 -0.106600 -0.465895 0.000000 -0.106969 -0.416183 0.000000 -0.108076 -0.413427 0.000000 -0.108182 -0.461868 0.000000 -0.144761 -0.346183 0.000000 -0.140507 -0.378522 0.000000 -0.147242 -0.346799 0.000000 -0.109845 -0.463881 0.000000 -0.148729 -0.345349 0.000000 -0.142623 -0.374955 0.000000 -0.167140 -0.263635 0.000000 -0.168873 -0.228987 0.000000 -0.167670 -0.262434 0.000000 -0.145408 -0.376970 0.000000 -0.144175 -0.090204 0.000000 -0.159468 -0.156385 0.000000 -0.160584 -0.151738 0.000000 -0.160705 -0.153944 0.000000 -0.160211 -0.158423 0.000000 -0.168790 -0.226765 0.000000 -0.167940 -0.260544 0.000000 -0.168524 -0.227949 0.000000 -0.160419 -0.160322 0.000000 -0.099355 -0.047046 0.000000 -0.108028 -0.079181 0.000000 -0.142483 -0.087793 0.000000 -0.158783 -0.156253 0.000000 -0.142824 -0.090729 0.000000 -0.109216 -0.079558 0.000000 -0.107778 -0.078276 0.000000 -0.097738 -0.047521 0.000000 -0.073610 -0.045062 0.000000 -0.048322 -0.012361 0.000000 -0.060888 -0.027541 0.000000 -0.076350 -0.022790 0.000000 -0.077877 -0.024249 0.000000 -0.060959 -0.027550 0.000000 -0.097647 -0.046121 0.000000 -0.072792 -0.044796 0.000000 -0.097050 -0.046048 0.000000 -0.060861 -0.027668 0.000000 -0.022423 -0.007956 0.000000 -0.030634 -0.014100 0.000000 -0.047311 -0.012424 0.000000 -0.060270 -0.027420 0.000000 -0.047576 -0.012671 0.000000 -0.031177 -0.014419 0.000000 -0.029891 -0.014199 0.000000 -0.022034 -0.008004 0.000000 -0.012857 -0.005952 0.000000 -0.009843 -0.003883 0.000000 -0.012546 -0.005788 0.000000 -0.021738 -0.007683 0.000000 -0.012325 -0.005718 0.000000 -0.009613 -0.003893 0.000000 -0.006263 -0.002949 0.000000 -0.002833 -0.001293 0.000000 -0.004087 -0.001789 0.000000 -0.006248 -0.002448 0.000000 -0.006384 -0.002442 0.000000 -0.004156 -