<?xml version='1.0'?>
<VTKFile type='PolyData' version='0.1' byte_order='LittleEndian'><PolyData>
<Piece NumberOfPoints='9000' NumberOfVerts='0' NumberOfLines='0' NumberOfStrips='0' NumberOfPolys='3000'>
<Points>
<DataArray type='Float32' NumberOfComponents='3' format='ascii'>
10.746710 49.079552 0.000000 7.733062 49.713019 0.000000 8.858859 47.588826 0.000000 4.605474 49.837463 0.000000 6.610094 47.177525 0.000000 7.675415 49.594941 0.000000 8.915766 47.445786 0.000000 7.680369 49.508166 0.000000 6.580343 47.106343 0.000000 6.571793 47.107725 0.000000 4.621013 49.807398 0.000000 4.610183 47.230358 0.000000 1.639082 49.920228 0.000000 2.581302 47.059914 0.000000 4.614105 49.793776 0.000000 4.595825 47.218292 0.000000 4.615592 49.795279 0.000000 2.582830 47.061389 0.000000 2.520408 47.042286 0.000000 1.637620 49.921503 0.000000 -0.334649 47.647510 0.000000 -1.647585 49.919855 0.000000 -0.336633 47.646055 0.000000 1.635753 49.919952 0.000000 -0.342715 47.644514 0.000000 -1.648683 49.921168 0.000000 -2.916023 47.839896 0.000000 -4.630077 49.886379 0.000000 -3.022782 47.903768 0.000000 -1.652545 49.918792 0.000000 -3.017830 47.897642 0.000000 -4.655139 49.855540 0.000000 -4.617217 47.885123 0.000000 -7.710313 49.620279 0.000000 -6.174516 47.842526 0.000000 -4.641565 49.877649 0.000000 -4.618481 47.877543 0.000000 -4.657636 49.847929 0.000000 -6.184470 47.808229 0.000000 -6.138663 47.750941 0.000000 -7.701750 49.504750 0.000000 -8.500734 47.273612 0.000000 -10.742250 49.130792 0.000000 -8.452119 47.457985 0.000000 -7.717951 49.711282 0.000000 19.887433 46.651411 0.000000 16.931138 47.513780 0.000000 16.693383 45.833314 0.000000 16.804796 47.491681 0.000000 13.910006 48.542178 0.000000 16.357938 45.854361 0.000000 16.297652 45.620696 0.000000 13.801890 48.264157 0.000000 13.957048 45.194226 0.000000 8.896343 47.483410 0.000000 10.998574 45.667313 0.000000 10.772179 48.989226 0.000000 10.766418 49.069965 0.000000 11.032609 45.751004 0.000000 13.751118 48.311727 0.000000 13.919914 45.149277 0.000000 13.693942 48.214811 0.000000 10.983875 45.645157 0.000000 11.032284 45.602534 0.000000 8.902494 47.386228 0.000000 8.436528 45.807444 0.000000 6.548465 47.100596 0.000000 8.435687 45.806244 0.000000 8.890840 47.388180 0.000000 8.430832 45.809347 0.000000 6.542983 47.102784 0.000000 6.981325 44.980453 0.000000 2.572069 47.060713 0.000000 4.588559 44.900064 0.000000 4.586817 47.192962 0.000000 6.988784 44.944840 0.000000 6.544203 47.065877 0.000000 4.592197 44.921218 0.000000 4.586680 47.216630 0.000000 4.594506 44.923755 0.000000 6.546511 47.068413 0.000000 4.530463 44.932106 0.000000 2.529455 47.107108 0.000000 2.380473 44.974778 0.000000 2.372964 44.915497 0.000000 2.525307 47.047594 0.000000 0.306697 45.062659 0.000000 -0.340803 47.646668 0.000000 0.294417 45.055533 0.000000 2.513852 47.039556 0.000000 0.291133 45.054839 0.000000 -0.340872 47.646759 0.000000 -1.926142 46.105456 0.000000 -2.916615 47.839941 0.000000 -1.929092 46.103805 0.000000 -0.343308 47.644559 0.000000 -6.104791 47.761341 0.000000 -4.494552 45.949238 0.000000 -4.540688 47.864871 0.000000 -1.952280 46.144336 0.000000 -2.939729 47.880516 0.000000 -4.467667 45.897191 0.000000 -4.523425 47.863373 0.000000 -4.491736 45.947447 0.000000 -2.924405 47.899793 0.000000 -8.461842 47.259872 0.000000 -6.826545 46.152261 0.000000 -6.104094 47.758117 0.000000 -4.492512 45.946938 0.000000 -6.104220 47.757726 0.000000 -6.824504 46.150895 0.000000 -6.799867 46.133184 0.000000 -8.440757 47.232494 0.000000 -8.358659 45.393294 0.000000 -13.799584 48.350229 0.000000 -11.085844 45.882203 0.000000 -10.817163 49.117382 0.000000 -8.358671 45.393551 0.000000 -8.445790 47.232521 0.000000 -11.025259 45.701763 0.000000 -10.682114 48.995157 0.000000 -11.095645 45.775287 0.000000 -8.468382 47.222481 0.000000 -11.151553 45.858629 0.000000 -13.845202 48.348567 0.000000 -13.610044 45.931705 0.000000 -19.721261 46.603349 0.000000 -16.050504 45.477622 0.000000 -16.770596 47.484789 0.000000 -16.750875 47.506462 0.000000 -15.880608 45.559698 0.000000 -13.813140 48.430081 0.000000 -13.617223 45.930364 0.000000 -13.850715 48.347388 0.000000 -15.918299 45.477089 0.000000 22.356467 44.995161 0.000000 19.599528 46.367255 0.000000 20.377922 43.807208 0.000000 20.409199 43.629264 0.000000 19.601352 46.180170 0.000000 18.179251 43.724384 0.000000 16.287754 45.685238 0.000000 18.116073 43.697975 0.000000 19.552652 46.145319 0.000000 18.143175 43.668687 0.000000 16.269071 45.612825 0.000000 15.635570 43.247805 0.000000 13.938027 45.142302 0.000000 15.634713 43.250536 0.000000 16.269698 45.615163 0.000000 11.003541 45.640093 0.000000 13.059163 42.981389 0.000000 13.938554 45.138208 0.000000 15.640735 43.242108 0.000000 13.942843 45.132793 0.000000 13.062283 42.976453 0.000000 13.090468 42.940914 0.000000 11.033407 45.598510 0.000000 10.644522 42.528258 0.000000 6.980618 44.980092 0.000000 8.705433 43.933453 0.000000 8.435935 45.798734 0.000000 10.644233 42.525958 0.000000 11.033083 45.596216 0.000000 8.703828 43.939329 0.000000 8.438701 45.807138 0.000000 8.707014 43.941684 0.000000 11.034375 45.601226 0.000000 4.589492 44.917713 0.000000 6.640203 43.036089 0.000000 6.986086 44.941687 0.000000 8.725609 43.920686 0.000000 6.986388 44.943258 0.000000 6.647628 43.036381 0.000000 6.571548 43.052225 0.000000 4.533910 44.947998 0.000000 4.654683 42.401631 0.000000 0.308937 45.061173 0.000000 2.137027 42.678512 0.000000 2.375274 44.915053 0.000000 4.646351 42.386971 0.000000 4.533392 44.933689 0.000000 2.147485 42.739639 0.000000 2.381555 44.974761 0.000000 2.145593 42.737991 0.000000 4.531542 44.931985 0.000000 2.130896 42.681262 0.000000 0.305262 45.065803 0.000000 -0.441420 42.902355 0.000000 -4.466406 45.894126 0.000000 -2.251288 44.162983 0.000000 -1.951320 46.144311 0.000000 -0.457338 42.893082 0.000000 0.292567 45.055417 0.000000 -2.226678 44.125873 0.000000 -1.927026 46.105850 0.000000 -2.229381 44.124876 0.000000 0.289864 45.054420 0.000000 -2.251686 44.163295 0.000000 -4.466803 45.894436 0.000000 -4.518357 43.106501 0.000000 -8.352839 45.395885 0.000000 -6.644146 44.358577 0.000000 -6.793654 46.134945 0.000000 -4.517749 43.149619 0.000000 -4.466593 45.937562 0.000000 -6.634076 44.336331 0.000000 -6.792032 46.127965 0.000000 -6.633268 44.352400 0.000000 -4.458405 45.943597 0.000000 -11.016312 45.683569 0.000000 -8.855161 43.524483 0.000000 -8.347934 45.391260 0.000000 -6.632131 44.349656 0.000000 -8.351425 45.369297 0.000000 -8.856629 43.501972 0.000000 -8.853916 43.523236 0.000000 -11.016176 45.681211 0.000000 -11.173624 42.612068 0.000000 -15.821665 45.394464 0.000000 -13.462188 43.929910 0.000000 -13.515593 45.821595 0.000000 -11.174171 42.623278 0.000000 -11.015615 45.692363 0.000000 -13.395308 43.871101 0.000000 -13.502773 45.793788 0.000000 -13.409851 43.903632 0.000000 -11.043731 45.742496 0.000000 -13.388836 43.885678 0.000000 -15.769568 45.315420 0.000000 -15.593871 42.522665 0.000000 -19.510970 46.164920 0.000000 -18.046540 43.442092 0.000000 -15.760417 45.343301 0.000000 -15.597343 42.523409 0.000000 -15.770189 45.316342 0.000000 -18.063344 43.423620 0.000000 -18.081180 43.439582 0.000000 -19.521876 46.175042 0.000000 -20.335408 43.638337 0.000000 -22.401163 45.007889 0.000000 -20.340244 43.856928 0.000000 -19.672777 46.435919 0.000000 27.902412 41.989783 0.000000 25.281266 43.606245 0.000000 25.694400 41.008376 0.000000 25.631369 41.009933 0.000000 25.264810 43.614782 0.000000 22.523521 41.685939 0.000000 20.406373 43.649648 0.000000 22.342850 41.460786 0.000000 22.352222 44.890432 0.000000 25.112052 43.537083 0.000000 22.424318 45.040226 0.000000 22.368812 41.611017 0.000000 18.140567 43.679921 0.000000 19.571312 41.971571 0.000000 20.371939 43.628063 0.000000 22.339314 41.457562 0.000000 20.379677 43.625713 0.000000 19.590057 41.963946 0.000000 15.641493 43.244837 0.000000 17.491593 41.429453 0.000000 18.148451 43.669552 0.000000 19.578887 41.961482 0.000000 18.148661 43.670259 0.000000 17.492188 41.430041 0.000000 17.496726 41.424395 0.000000 15.646589 43.239734 0.000000 14.933045 40.641636 0.000000 13.068287 42.970325 0.000000 14.933054 40.642107 0.000000 15.646294 43.240284 0.000000 14.956126 40.611903 0.000000 13.090926 42.939775 0.000000 12.269381 40.592655 0.000000 10.644097 42.524874 0.000000 12.269183 40.593133 0.000000 13.089515 42.940678 0.000000 12.282820 40.576680 0.000000 10.656662 42.507512 0.000000 10.268126 40.434702 0.000000 6.613275 43.021070 0.000000 8.521344 41.574447 0.000000 8.699138 43.886625 0.000000 10.267205 40.432571 0.000000 10.655911 42.505351 0.000000 8.523824 41.604059 0.000000 8.715654 43.916905 0.000000 8.527113 41.605579 0.000000 10.658938 42.507487 0.000000 8.477165 41.601821 0.000000 6.572069 43.052357 0.000000 6.166411 40.485745 0.000000 4.654423 42.401517 0.000000 6.166159 40.484948 0.000000 6.571457 43.051616 0.000000 6.164565 40.482399 0.000000 4.651644 42.398028 0.000000 3.836650 40.765386 0.000000 2.145552 42.739847 0.000000 3.823880 40.757399 0.000000 4.644430 42.387245 0.000000 3.822328 40.759229 0.000000 2.143620 42.741379 0.000000 1.980067 39.870602 0.000000 1.963776 39.813139 0.000000 2.133249 42.683579 0.000000 -0.111088 40.856957 0.000000 -0.441972 42.902403 0.000000 -0.114419 40.855206 0.000000 2.130344 42.681306 0.000000 -4.509921 43.107404 0.000000 -2.352612 41.804858 0.000000 -2.244412 44.166702 0.000000 -0.124912 40.852490 0.000000 -0.444843 42.900894 0.000000 -2.330352 41.776308 0.000000 -2.242452 44.133867 0.000000 -2.353826 41.772167 0.000000 -0.471926 42.902778 0.000000 -2.356464 41.807188 0.000000 -4.514606 43.108354 0.000000 -4.582645 40.552851 0.000000 -8.857468 43.499884 0.000000 -6.806961 41.981800 0.000000 -6.633538 44.349052 0.000000 -6.634702 44.333171 0.000000 -6.807979 41.965907 0.000000 -4.516955 43.149003 0.000000 -4.585664 40.592257 0.000000 -4.519282 43.147804 0.000000 -6.809073 41.962307 0.000000 -11.174262 42.606163 0.000000 -9.156226 41.072448 0.000000 -8.855106 43.518737 0.000000 -6.806432 41.980792 0.000000 -
[...]
<PointData Vectors='Velocity Force Displacement'>
<DataArray type='Float32' Name='Velocity' NumberOfComponents='3' format='ascii'>
1.026565 5.025386 0.000000 1.316830 6.406328 0.000000 0.343467 5.890450 0.000000 -0.059896 -0.373766 0.000000 1.653002 0.920061 0.000000 0.095990 1.607764 0.000000 1.898391 2.775718 0.000000 -0.253726 1.486630 0.000000 2.252440 0.338864 0.000000 1.830786 0.307628 0.000000 0.498461 -0.655096 0.000000 1.770260 -0.660449 0.000000 -0.160745 -1.032473 0.000000 0.999642 -0.649802 0.000000 -0.108129 0.181230 0.000000 0.941996 0.082643 0.000000 -0.068611 0.089944 0.000000 1.002959 -0.705381 0.000000 -0.276927 -1.159368 0.000000 -0.159077 -1.121023 0.000000 -0.252244 -1.042712 0.000000 -0.216441 -0.964621 0.000000 -0.248698 -0.983166 0.000000 -0.216671 -1.010940 0.000000 -0.247329 -1.253669 0.000000 -0.161597 -1.199760 0.000000 -0.239236 -1.153361 0.000000 -0.256874 2.097113 0.000000 -2.373736 0.380935 0.000000 -0.222223 -1.082074 0.000000 -2.404878 0.384178 0.000000 -0.884248 1.654933 0.000000 -2.414775 1.625725 0.000000 -1.660736 3.690464 0.000000 -5.384376 0.517294 0.000000 -1.248563 -2.607996 0.000000 -2.450279 -2.159602 0.000000 3.099434 -2.055368 0.000000 -2.654799 2.277330 0.000000 -1.490777 1.619392 0.000000 -0.692970 2.330448 0.000000 -1.707921 2.693902 0.000000 -1.019184 6.100577 0.000000 -0.888136 6.279986 0.000000 -1.064659 6.337501 0.000000 8.222955 12.677993 0.000000 6.686058 7.409779 0.000000 9.680715 6.986022 0.000000 3.887078 7.006625 0.000000 4.774349 9.451705 0.000000 2.504120 7.384047 0.000000 1.178421 2.772605 0.000000 2.281620 3.819770 0.000000 0.998905 3.752797 0.000000 2.567295 3.864105 0.000000 2.781910 4.113832 0.000000 2.390171 4.084940 0.000000 2.485775 4.680008 0.000000 1.686951 4.616295 0.000000 2.302756 3.963633 0.000000 0.815699 2.857740 0.000000 0.737687 2.851942 0.000000 0.803185 2.783191 0.000000 1.628993 1.184590 0.000000 2.013195 1.578116 0.000000 1.704605 1.659023 0.000000 1.025763 0.692192 0.000000 1.533777 1.433114 0.000000 0.912713 1.611805 0.000000 1.283069 1.627840 0.000000 0.716308 0.785799 0.000000 1.640509 0.984071 0.000000 0.981577 -0.671691 0.000000 1.430465 -0.250910 0.000000 0.930660 -0.234121 0.000000 1.585144 0.752043 0.000000 0.951878 0.600606 0.000000 1.558517 0.062691 0.000000 0.925997 0.057983 0.000000 1.555739 0.061353 0.000000 0.952512 0.602254 0.000000 0.096240 0.489446 0.000000 0.016510 0.413324 0.000000 0.092564 0.411107 0.000000 -0.134275 -1.272233 0.000000 -0.092095 -1.274217 0.000000 -0.130919 -1.231881 0.000000 -0.292103 -1.206012 0.000000 -0.255892 -1.198841 0.000000 -0.284906 -1.164681 0.000000 -0.379701 -1.401650 0.000000 -0.261546 -1.372246 0.000000 -0.331593 -1.299782 0.000000 -0.239380 -1.153283 0.000000 -0.310959 -1.194467 0.000000 -0.247359 -1.253788 0.000000 -0.990403 1.692928 0.000000 -1.544743 1.214053 0.000000 -0.962384 1.227759 0.000000 -0.918699 -0.252836 0.000000 -0.790330 -0.179906 0.000000 -0.937416 -0.067086 0.000000 -0.412664 1.277458 0.000000 -1.453469 1.260525 0.000000 -0.393268 0.407723 0.000000 -1.144845 2.511140 0.000000 -1.524997 1.949872 0.000000 -0.973834 1.701915 0.000000 -1.555354 1.151150 0.000000 -0.981742 1.674999 0.000000 -1.505724 1.909582 0.000000 -0.808549 1.386127 0.000000 -0.421119 1.964396 0.000000 -1.069467 1.935561 0.000000 -2.525410 5.485858 0.000000 -2.287278 5.747697 0.000000 -2.599430 5.773622 0.000000 -1.078181 1.924042 0.000000 -0.718565 1.941049 0.000000 -1.018015 2.445728 0.000000 0.080517 3.286683 0.000000 -2.488323 3.616576 0.000000 -1.333720 1.520537 0.000000 -3.547991 5.301295 0.000000 -3.317275 5.550888 0.000000 -3.541220 5.529098 0.000000 -4.813669 11.618433 0.000000 -6.655708 5.611494 0.000000 -3.371163 6.789934 0.000000 -2.912560 7.425606 0.000000 -3.123570 7.331278 0.000000 -2.812448 7.107184 0.000000 -3.623286 5.558330 0.000000 -3.499337 5.570304 0.000000 -3.646531 5.676333 0.000000 1.443924 4.958406 0.000000 2.324839 6.728458 0.000000 0.681209 6.228691 0.000000 1.281714 2.695627 0.000000 2.217370 2.991945 0.000000 1.316600 3.513559 0.000000 1.271700 3.722795 0.000000 0.424613 2.943451 0.000000 1.467822 2.331100 0.000000 0.960344 2.540485 0.000000 1.029695 2.626472 0.000000 0.941537 2.640820 0.000000 0.911469 2.712169 0.000000 0.763667 2.579747 0.000000 0.963096 2.516678 0.000000 0.747813 2.687874 0.000000 0.772355 2.707184 0.000000 0.752047 2.715739 0.000000 0.856250 2.528427 0.000000 0.901736 2.569772 0.000000 0.851542 2.591071 0.000000 1.799797 1.598601 0.000000 1.922671 1.692608 0.000000 1.782086 1.710650 0.000000 1.561585 0.857569 0.000000 2.030798 1.595751 0.000000 1.221836 1.473687 0.000000 1.780396 1.710884 0.000000 1.985215 1.685485 0.000000 1.873457 1.836074 0.000000 1.585039 1.440603 0.000000 1.718048 1.463669 0.000000 1.571914 1.607817 0.000000 1.566025 -0.322023 0.000000 2.223703 0.394815 0.000000 1.557638 0.515703 0.000000 2.026404 1.337347 0.000000 1.550671 0.529514 0.000000 2.436752 0.372263 0.000000 0.420575 0.867974 0.000000 0.239096 0.672916 0.000000 0.482855 0.684477 0.000000 -0.102545 -1.290489 0.000000 -0.085887 -1.269608 0.000000 -0.099966 -1.271691 0.000000 0.197304 0.504032 0.000000 0.092100 0.501751 0.000000 0.182632 0.401008 0.000000 0.092037 0.412068 0.000000 0.182205 0.395318 0.000000 0.091981 0.502349 0.000000 -0.229888 -1.322666 0.000000 -0.132009 -1.245736 0.000000 -0.220403 -1.217257 0.000000 -0.957880 -0.369728 0.000000 -0.918513 -0.317241 0.000000 -0.962594 -0.307728 0.000000 -0.529296 -1.378577 0.000000 -0.415600 -1.417521 0.000000 -0.464339 -1.284955 0.000000 -0.360401 -1.300670 0.000000 -0.464470 -1.284838 0.000000 -0.415607 -1.417360 0.000000 -0.918302 -0.317539 0.000000 -0.958275 -0.369398 0.000000 -0.895575 -0.370817 0.000000 -0.970067 1.983761 0.000000 -1.296110 1.446687 0.000000 -0.737765 1.493683 0.000000 -0.914456 0.943236 0.000000 -0.957854 0.944173 0.000000 -0.933061 0.909930 0.000000 -0.690525 1.387353 0.000000 -0.920781 1.366764 0.000000 -0.714434 1.084728 0.000000 -0.796277 2.030179 0.000000 -0.947818 1.878597 0.000000 -0.816772 1.842985 0.000000 -0.942425 1.204699 0.000000 -1.028863 1.058951 0.000000 -0.870565 1.016123 0.000000 -0.895416 1.824282 0.000000 -0.847952 1.871868 0.000000 -0.915483 1.875379 0.000000 -1.623131 3.819981 0.000000 -1.915062 3.349661 0.000000 -1.537989 3.360307 0.000000 -0.879205 2.083341 0.000000 -0.842173 2.081697 0.000000 -0.861128 2.113421 0.000000 -1.237373 2.524444 0.000000 -0.965047 2.537831 0.000000 -1.229982 2.878733 0.000000 -0.626536 2.609451 0.000000 -0.616951 2.625406 0.000000 -0.635673 2.624230 0.000000 -0.383573 2.776372 0.000000 -0.297210 2.822821 0.000000 -0.357513 2.895333 0.000000 -0.575521 2.524358 0.000000 -0.726241 2.515031 0.000000 -0.624099 2.391283 0.000000 -0.964850 2.640419 0.000000 -0.511136 2.879379 0.000000 -0.931884 3.014314 0.000000 -2.351857 5.225295 0.000000 -1.120828 7.429515 0.000000 -3.879154 8.143435 0.000000 6.184608 6.694689 0.000000 6.101567 6.560036 0.000000 6.235025 6.581259 0.000000 4.764446 6.562305 0.000000 5.720439 6.696838 0.000000 5.012539 7.702903 0.000000 1.237136 2.995741 0.000000 1.083649 2.859952 0.000000 1.324142 2.859295 0.000000 2.332908 4.989052 0.000000 2.890107 5.985376 0.000000 1.618926 6.005946 0.000000 0.934374 2.603839 0.000000 0.918651 2.589782 0.000000 0.935187 2.582662 0.000000 1.046875 2.949169 0.000000 0.777407 2.705617 0.000000 0.983939 2.607480 0.000000 0.941817 2.480574 0.000000 0.957417 2.520984 0.000000 0.935967 2.544449 0.000000 0.949883 2.612778 0.000000 0.919204 2.587982 0.000000 0.959202 2.574176 0.000000 1.012970 2.451149 0.000000 0.986304 2.451504 0.000000 0.966994 2.452611 0.000000 0.988522 2.429005 0.000000 1.036539 2.467404 0.000000 0.982867 2.481934 0.000000 1.748408 1.563928 0.000000 1.825612 1.625761 0.000000 1.747747 1.653015 0.000000 1.793750 1.661260 0.000000 1.749960 1.624156 0.000000 1.804030 1.605116 0.000000 2.002395 1.222635 0.000000 2.045408 1.262685 0.000000 1.998269 1.271531 0.000000 1.744256 -0.186239 0.000000 1.997069 0.147215 0.000000 1.592992 0.178288 0.000000 2.061111 1.183249 0.000000 2.066590 1.182222 0.000000 2.064208 1.187857 0.000000 1.946826 1.231997 0.000000 2.061347 1.222781 0.000000 2.017971 1.327485 0.000000 0.543180 1.005295 0.000000 0.400725 0.818198 0.000000 0.652788 0.778359 0.000000 0.479582 0.678736 0.000000 0.643842 0.808300 0.000000 0.423865 0.843036 0.000000 0.531004 0.815653 0.000000 0.291026 0.628742 0.000000 0.494810 0.527346 0.000000 0.178024 0.379772 0.000000 0.272352 0.461899 0.000000 0.192424 0.504873 0.000000 0.189968 0.602972 0.000000 -0.025532 0.417356 0.000000 0.290135 0.394801 0.000000 -0.265349 -1.351883 0.000000 -0.227699 -1.354043 0.000000 -0.251585 -1.324167 0.000000 -0.220284 -1.216922 0.000000 -0.309178 -1.233133 0.000000 -0.231844 -1.328012 0.000000 -0.908642 -0.191779 0.000000 -0.970213 -0.294265 0.000000 -0.860074 -0.297499 0.000000 -0.522964 -1.317726 0.000000 -0.258576 -1.273215 0.000000 -0.401833 -1.031731 0.000000 -0.816667 -1.124292 0.000000 -0.940549 -1.118465 0.000000 -0.881230 -1.217184 0.000000 -1.013474 -0.267589 0.000000 -1.010312 -0.263933 0.000000 -1.011128 -0.260654 0.000000 -0.907061 1.132378 0.000000 -0.853823 1.204169 0.000000 -0.935459 1.210758 0.000000 -0.958932 0.845376 0.000000 -0.906464 0.843192 0.000000 -0.929726 0.891591 0.000000 -0.916164 0.859632 0.000000 -0.967277 0.863190 0.000000 -0.942478 0.817644 0.000000 -0.864250 1.854161 0.000000 -0.932894 1.763446 0.000000 -0.823086 1.749694 0.000000 -0.900090 1.149379 0.000000 -0.872692 1.186282 0.000000 -0.917606 1.191670 0.000000 -0.912212 1.700522 0.000000 -0.914019 1.697998 0.000000 -0.911424 1.698014 0.000000 -0.972685 2.264159 0.000000 -1.061237 2.094603 0.000000 -0.870452 2.098510 0.000000 -0.841619 2.134361 0.000000 -1.000873 2.133685 0.000000 -0.917734 1.994438 0.000000 -0.917657 1.926711 0.000000 -0.946678 1.928109 0.000000 -0.931059 1.902064 0.000000 -0.880280 2.049913 0.000000 -0.897825 2.016175 0.000000 -0.861810 2.018736 0.000000 -0.890850 2.179600 0.000000 -0.943959 2.175891 0.000000 -0.912680 2.131419 0.000000 -0.696867 2.374847 0.000000 -0.670097 2.380066 0.000000 -0.686647 2.402981 0.000000 -0.638572 2.364868 0.000000 -0.619351 2.368604 0.000000 -0.632161 2.380914 0.000000 -0.540676 2.480368 0.000000 -0.425157 2.530286 0.000000 -0.528775 2.629412 0.000000 -2.659153 4.652831 0.000000 -2.701061 4.579573 0.000000 -2.622446 4.584408 0.000000 -1.069111 3.335108 0.000000 -1.214372 3.271602 0.000000 -1.058316 3.122228 0.000000 -1.948182 3.742799 0.000000 -1.215401 3.794212 0.000000 -1.657049 4.215428 0.000000 -0.929162 2.928504 0.000000 -0.825028 3.109878 0.000000 -1.011558 3.115620 0.000000 -2.917449 4.910059 0.000000 -2.957795 4.835481 0.000000 -2.869791 4.832796 0.000000 8.223072 7.065127 0.000000 6.775251 5.121119 0.000000 8.006849 5.079766 0.000000 2.319717 4.340508 0.000000 2.627463 4.732140 0.000000 2.152036 4.711370 0.000000 3.819239 5.075057 0.000000 3.413898 5.062699 0.000000 3.562037 4.715551 0.000000 2.383509 4.389746 0.000000 2.426028 4.386507 0.000000 2.397919 4.452377 0.000000 2.139265 4.356874 0.000000 2.070093 4.269640 0.000000 2.159032 4.232481 0.000000 1.968318 4.469726 0.000000 1.836230 4.376150 0.000000 1.940400 4.331940 0.000000 1.165723 2.914057 0.000000 1.127498 2.886559 0.000000 1.162494 2.880522 0.000000 0.927261 2.592484 0.000000 0.908063 2.571697 0.000000 0.935882 2.568886 0.000000 1.069369 2.634898 0.000000 0.595361 2.715474 0.000000 0.909978 2.234140 0.000000 0.920426 2.602174 0.000000 1.238858 2.599998 0.000000 0.990076 2.980963 0.000000 1.146206 2.469987 0.000000 1.127088 2.436591 0.000000 1.158044 2.430643 0.000000 1.146880 2.393086 0.000000 1.155280 2.402768 0.000000 1.145712 2.405191 0.000000 0.807247 1.559424 0.000000 0.696673 1.344360 0.000000 0.937376 1.403399 0.000000 0.901231 1.291551 0.000000 0.735886 1.257985 0.000000 0.857983 1.165731 0.000000 0.742192 1.093198 0.000000 0.856800 1.167475 0.000000 0.737757 1.258306 0.000000 0.812480 1.191546 0.000000 0.713529 1.126819 0.000000 0.837714 1.066140 0.000000 0.714678 1.012858 0.000000 0.837602 1.066117 0.000000 0.706642 1.127305 0.000000 0.513277 0.667552 0.000000 0.654454 0.933680 0.000000 0.393160 0.916938 0.000000 0.837474 1.066122 0.000000 0.712709 1.013816 0.000000 0.781397 0.924061 0.000000 0.643254 1.005907 0.000000 0.671198 1.007601 0.000000 0.656934 1.026272 0.000000 0.622877 0.877216 0.000000 0.511775 0.664675 0.000000 0.725307 0.716513 0.000000 0.387985 0.221378 0.000000 0.541286 0.438838 0.000000 0.300250 0.404542 0.000000 0.651126 0.698388 0.000000 0.416589 0.642789 0.000000 0.620654 0.458024 0.000000 0.388407 0.423129 0.000000 0.619984 0.458176 0.000000 0.416433 0.643495 0.000000 0.192805 0.682285 0.000000 0.009639 0.423616 0.000000 0.279452 0.382264 0.000000 -0.258798 -1.359923 0.000000 -0.237059 -1.363482 0.000000 -0.246726 -1.345417 0.000000 -0.212493 -1.303769 0.000000 -0.270031 -1.311529 0.000000 -0.242156 -1.364917 0.000000 -0.953657 -0.370537 0.000000 -0.892463 -0.267497 0.000000 -1.006185 -0.277044 0.000000 -0.352478 -1.210734 0.000000 -0.380187 -1.213961 0.000000 -0.356811 -1.242546 0.000000 -0.380250 -0.980741 0.000000 -0.800202 -1.008683 0.000000 -0.524949 -1.320103 0.000000 -0.863531 -0.284323 0.000000 -0.918293 -0.382648 0.000000 -0.824119 -0.380595 0.000000 -0.937520 1.160563 0.000000 -0.956073 1.139835 0.000000 -0.928159 1.136905 0.000000 -0.767977 0.922607 0.000000 -0.880175 0.919024 0.000000 -0.811972 0.812172 0.000000 -0.981972 0.794835 0.000000 -0.888960 0.785327 0.000000 -0.936069 0.869748 0.000000 -0.977879 1.394995 0.000000 -0.887934 1.502502 0.000000 -1.037850 1.540590 0.000000 -0.958344 1.141348 0.000000 -0.947848 1.153080 0.000000 -0.960348 1.156275 0.000000 -0.890122 1.487073 0.000000 -0.977921 1.382139 0.000000 -0.874709 1.383819 0.000000 -0.976463 1.824455 0.000000 -0.926864 1.907552 0.000000 -1.021107 1.899346 0.000000 -1.006303 1.732400 0.000000 -0.783153 1.751943 0.000000 -0.912544 1.904690 0.000000 -0.909469 1.449569 0.000000 -0.967478 1.448628 0.000000 -0.909874 1.380859 0.000000 -0.927628 1.906183 0.000000 -0.977167 1.823229 0.000000 -0.894833 1.815465 0.000000 -0.854139 2.096366 0.000000 -0.907859 2.088731 0.000000 -0.878746 2.046835 0.000000 -0.915071 2.016348 0.000000 -0.959629 2.020442 0.000000 -0.940626 1.984717 0.000000 -0.709982 2.639604 0.000000 -0.804424 2.542050 0.000000 -0.705776 2.535343 0.000000 -0.920760 2.086391 0.000000 -0.845161 2.097078 0.000000 -0.917555 2.186611 0.000000 -0.661290 2.361610 0.000000 -0.674936 2.362482 0.000000 -0.665701 2.350563 0.000000 -0.976903 3.005000 0.000000 -1.131650 2.827677 0.000000 -0.852234 2.769253 0.000000 -0.731833 2.467371 0.000000 -0.614687 2.588573 0.000000 -0.772746 2.623394 0.000000 -1.235821 2.661665 0.000000 -1.033372 2.931111 0.000000 -1.314673 2.952226 0.000000 -3.099316 5.848450 0.000000 -3.154687 5.680553 0.000000 -2.981816 5.682823 0.000000 -1.871394 3.925454 0.000000 -1.237875 3.829424 0.000000 -1.534168 4.439619 0.000000 -2.498008 4.966713 0.000000 -2.733548 4.965155 0.000000 -2.621835 4.739885 0.000000 -3.864816 4.904994 0.000000 -4.235509 5.374218 0.000000 -4.244641 4.799598 0.000000 -3.689081 4.482712 0.000000 -3.355854 5.436180 0.000000 -4.094308 5.237352 0.000000 4.160791 6.394154 0.000000 2.860186 4.881838 0.000000 4.291586 4.598217 0.000000 0.956989 4.056960 0.000000 1.280820 4.348712 0.000000 1.030379 4.393903 0.000000 2.538867 4.632609 0.000000 2.676332 4.607424 0.000000 2.567677 4.834192 0.000000 2.712970 4.448142 0.000000 2.623570 4.468296 0.000000 2.678506 4.353292 0.000000 0.937201 3.994896 0.000000 0.978585 4.044580 0.000000 0.926058 4.065444 0.000000 1.228218 4.283744 0.000000 0.970501 4.051315 0.000000 1.257280 3.938847 0.000000 0.840990 3.355274 0.000000 1.187614 3.764094 0.000000 0.767101 3.750396 0.000000 0.724885 2.502639 0.000000 0.720892 2.502482 0.000000 0.723891 2.499139 0.000000 0.875846 2.638819 0.000000 0.879147 2.639791 0.000000 0.876282 2.642988 0.000000 1.086401 1.940122 0.000000 1.083069 1.939121 0.000000 1.085039 1.936896 0.000000 0.897372 1.828296 0.000000 1.104258 1.909319 0.000000 0.982696 2.039168 0.000000 0.989645 1.379871 0.000000 1.027588 1.490877 0.000000 0.931697 1.449552 0.000000 1.053859 1.904694 0.000000 0.639684 1.741089 0.000000 1.090280 1.467959 0.000000 0.781763 1.722608 0.000000 0.967852 1.803243 0.000000 0.760148 1.929883 0.000000 0.903890 1.532076 0.000000 0.826850 1.307511 0.000000 0.997635 1.353045 0.000000 0.838356 1.063395 0.000000 0.902779 1.131123 0.000000 0.824535 1.132564 0.000000 0.927134 1.325236 0.000000 0.825065 1.297317 0.000000 0.922496 1.185088 0.000000 0.787874 1.188598 0.000000 0.924192 1.186884 0.000000 0.825519 1.296962 0.000000 0.897871 1.134130 0.000000 0.835697 1.065886 0.000000 0.895017 1.063732 0.000000 0.725303 0.716472 0.000000 0.819174 0.845971 0.000000 0.655029 0.826821 0.000000 0.894013 1.048454 0.000000 0.833497 1.048324 0.000000 0.887488 0.982277 0.000000 0.716065 0.927806 0.000000 0.842672 0.944305 0.000000 0.759968 1.043476 0.000000 0.727401 0.715916 0.000000 0.724663 0.716191 0.000000 0.726912 0.714676 0.000000 0.450229 0.424484 0.000000 0.618866 0.520385 0.000000 0.469518 0.578787 0.000000 0.506698 0.736322 0.000000 0.326888 0.628344 0.000000 0.483904 0.558681 0.000000 0.279539 0.381797 0.000000 0.477125 0.552630 0.000000 0.193091 0.681992 0.000000 0.393479 0.647528 0.000000 0.197767 0.474669 0.000000 0.412125 0.419996 0.000000 -0.306294 -1.185659 0.000000 -0.348031 -1.211001 0.000000 -0.311740 -1.225967 0.000000 -0.373885 -1.370584 0.000000 -0.313829 -1.389773 0.000000 -0.338235 -1.303740 0.000000 -0.268496 -1.333397 0.000000 -0.340436 -1.303657 0.000000 -0.312781 -1.389918 0.000000 -0.641754 -0.811565 0.000000 -0.623657 -0.801416 0.000000 -0.639427 -0.795226 0.000000 -0.817341 -0.440195 0.000000 -0.713333 -0.271488 0.000000 -0.926016 -0.195750 0.000000 -0.712955 -0.273145 0.000000 -0.815314 -0.440212 0.000000 -0.638254 -0.414759 0.000000 -0.837870 0.755912 0.000000 -0.988445 0.729579 0.000000 -0.840030 0.595356 0.000000 -0.815598 0.812812 0.000000 -0.711537 0.843722 0.000000 -0.776816 0.911192 0.000000 -0.845850 1.179569 0.000000 -0.993491 1.136114 0.000000 -0.885218 1.057404 0.000000 -0.945200 1.102146 0.000000 -0.914295 1.124666 0.000000 -0.951930 1.152120 0.000000 -0.951565 1.335467 0.000000 -0.899228 1.397295 0.000000 -0.951188 1.388497 0.000000 -0.932859 1.326941 0.000000 -0.842144 1.342327 0.000000 -0.944456 1.405149 0.000000 -0.974872 1.163925 0.000000 -1.013062 1.136116 0.000000 -0.965313 1.106768 0.000000 -0.845322 1.748435 0.000000 -0.825308 1.767711 0.000000 -0.854034 1.774857 0.000000 -0.895476 1.377295 0.000000 -0.952233 1.310241 0.000000 -0.863109 1.288157 0.000000 -0.830777 1.771289 0.000000 -0.849673 1.754248 0.000000 -0.830454 1.747066 0.000000 -0.946422 2.156844 0.000000 -1.002596 2.113835 0.000000 -0.954989 2.096690 0.000000 -0.942722 1.981063 0.000000 -0.951492 1.984247 0.000000 -0.948652 1.973728 0.000000 -1.009587 1.841171 0.000000 -0.880413 1.802352 0.000000 -0.921727 1.954490 0.000000 -0.940103 2.561757 0.000000 -1.012581 2.494454 0.000000 -0.917681 2.460325 0.000000 -1.006757 2.096966 0.000000 -0.940389 2.145988 0.000000 -1.025055 2.174146 0.000000 -0.872771 2.590712 0.000000 -0.917570 2.547558 0.000000 -0.858636 2.529332 0.000000 -0.849047 3.110497 0.000000 -1.142612 2.850791 0.000000 -0.732846 2.719015 0.000000 -1.189217 2.767019 0.000000 -0.962177 2.968216 0.000000 -1.178718 3.022735 0.000000 -2.203951 4.447766 0.000000 -1.952211 4.877725 0.000000 -2.457311 4.890095 0.000000 -1.122270 3.278609 0.000000 -1.498753 3.293655 0.000000 -1.351415 2.921775 0.000000 -1.271515 3.094237 0.000000 -0.985383 3.022469 0.000000 -1.116288 3.354859 0.000000 -1.938389 4.972410 0.000000 -2.221597 4.489219 0.000000 -1.731902 4.400735 0.000000 -2.464261 4.309715 0.000000 -2.079365 4.823827 0.000000 -2.463373 4.895148 0.000000 -5.806945 4.646045 0.000000 -5.565684 4.382685 0.000000 -5.506204 4.700213 0.000000 -4.247044 4.999901 0.000000 -4.192624 5.071218 0.000000 -4.264351 5.058758 0.000000 