<?xml version='1.0'?>
<VTKFile type='UnstructuredGrid' version='0.1' byte_order='LittleEndian'><UnstructuredGrid>
<Piece NumberOfPoints='3000' NumberOfCells='0'>
<PointData Vectors='principal_stress_direction_1 principal_stress_direction_2 principal_stress_direction_3'>
<DataArray type='Float32' Name='principal_stress_direction_1' NumberOfComponents='3' format='ascii'>
-0.978254 0.207409 0.000000 -0.783417 0.621497 0.000000 -0.220443 -0.975400 0.000000 -0.503188 0.864177 0.000000 0.285695 -0.958321 0.000000 -0.530016 -0.847988 0.000000 0.088696 -0.996059 0.000000 -0.821871 0.569673 0.000000 -0.409062 -0.912507 0.000000 -0.665517 -0.746383 0.000000 0.447490 -0.894289 0.000000 0.987861 -0.155339 0.000000 -0.845179 -0.534484 0.000000 -0.995341 -0.096417 0.000000 -0.998081 0.061927 0.000000 0.999192 0.040191 0.000000 -0.770802 0.637075 0.000000 -0.558998 0.829169 0.000000 -0.191441 0.981504 0.000000 0.621725 0.783236 0.000000 0.546782 0.837275 0.000000 0.901587 -0.432598 0.000000 0.928106 -0.372316 0.000000 0.996520 0.083355 0.000000 0.964994 -0.262271 0.000000 0.900358 -0.435149 0.000000 0.841183 -0.540751 0.000000 -0.025047 -0.999686 0.000000 -0.839942 -0.542677 0.000000 0.932787 0.360428 0.000000 0.596854 -0.802350 0.000000 -0.995690 -0.092741 0.000000 -0.581795 0.813336 0.000000 0.954699 0.297573 0.000000 -0.528166 -0.849141 0.000000 0.994187 0.107671 0.000000 -0.999486 -0.032071 0.000000 -0.703766 0.710432 0.000000 -0.665832 0.746102 0.000000 0.949384 0.314118 0.000000 0.293468 0.955969 0.000000 -0.737064 0.675823 0.000000 -0.983832 0.179096 0.000000 0.727005 0.686632 0.000000 0.573977 0.818872 0.000000 -0.808990 0.587823 0.000000 0.230681 0.973029 0.000000 0.976595 0.215088 0.000000 -0.820325 0.571898 0.000000 -0.435771 0.900058 0.000000 -0.772268 0.635297 0.000000 -0.918276 -0.395941 0.000000 -0.999791 -0.020457 0.000000 0.901473 -0.432835 0.000000 0.904018 -0.427495 0.000000 -0.920260 -0.391307 0.000000 0.022163 0.999754 0.000000 0.928213 -0.372050 0.000000 -0.541622 0.840622 0.000000 -0.570068 0.821597 0.000000 0.203809 -0.979011 0.000000 0.096829 -0.995301 0.000000 -0.224140 -0.974557 0.000000 0.284629 -0.958638 0.000000 -0.027239 -0.999629 0.000000 0.648473 0.761238 0.000000 -0.221780 -0.975097 0.000000 -0.811051 0.584976 0.000000 -0.092766 -0.995688 0.000000 -0.809309 -0.587383 0.000000 -0.487011 0.873396 0.000000 0.949726 0.313081 0.000000 -0.367522 -0.930015 0.000000 -0.920419 0.390934 0.000000 -0.755216 -0.655475 0.000000 0.866168 0.499752 0.000000 -0.460725 0.887543 0.000000 -0.967702 0.252096 0.000000 0.614043 0.789273 0.000000 -0.317762 0.948171 0.000000 0.806402 0.591368 0.000000 -0.789260 0.614059 0.000000 0.953938 0.300004 0.000000 -0.162583 0.986695 0.000000 0.375811 0.926696 0.000000 -0.900234 0.435406 0.000000 -0.850356 0.526208 0.000000 0.999661 -0.026044 0.000000 -0.798490 0.602008 0.000000 -0.859287 -0.511493 0.000000 0.994007 -0.109317 0.000000 -0.736314 0.676640 0.000000 -0.805096 0.593144 0.000000 0.724004 -0.689796 0.000000 -0.652604 0.757699 0.000000 0.913461 0.406926 0.000000 0.889382 -0.457165 0.000000 0.535948 0.844251 0.000000 -0.130962 0.991387 0.000000 0.325488 -0.945546 0.000000 0.417430 -0.908709 0.000000 -0.720058 0.693914 0.000000 -0.194853 -0.980832 0.000000 0.228774 -0.973480 0.000000 -0.279652 -0.960101 0.000000 -0.657449 0.753499 0.000000 -0.696518 -0.717539 0.000000 0.632398 -0.774644 0.000000 -0.978660 -0.205486 0.000000 -0.913690 -0.406412 0.000000 -0.979325 -0.202295 0.000000 -0.816266 -0.577677 0.000000 0.989816 -0.142354 0.000000 -0.874052 -0.485833 0.000000 -0.319751 -0.947502 0.000000 -0.662708 -0.748878 0.000000 0.736042 0.676935 0.000000 -0.744428 -0.667702 0.000000 0.990590 -0.136865 0.000000 -0.983154 0.182777 0.000000 -0.109872 0.993946 0.000000 0.970402 0.241495 0.000000 -0.832702 0.553721 0.000000 0.900630 0.434587 0.000000 0.024827 0.999692 0.000000 -0.988739 0.149649 0.000000 0.686560 0.727073 0.000000 -0.878463 0.477811 0.000000 -0.553670 0.832736 0.000000 -0.696970 0.717100 0.000000 0.982174 0.187976 0.000000 -0.999722 0.023561 0.000000 -0.716309 0.697783 0.000000 -0.556862 0.830605 0.000000 -0.996442 -0.084280 0.000000 0.772073 0.635534 0.000000 0.816992 -0.576649 0.000000 -0.826646 -0.562722 0.000000 -0.873652 0.486551 0.000000 -0.524233 0.851575 0.000000 -0.524365 -0.851493 0.000000 0.812925 -0.582368 0.000000 -0.961224 -0.275769 0.000000 -0.288403 -0.957509 0.000000 0.931912 -0.362685 0.000000 0.864638 -0.502395 0.000000 -0.142705 0.989765 0.000000 -0.122840 -0.992426 0.000000 0.211657 -0.977344 0.000000 0.737094 -0.675790 0.000000 0.718082 -0.695959 0.000000 -0.593638 -0.804732 0.000000 -0.320366 -0.947294 0.000000 0.120219 -0.992747 0.000000 -0.054540 -0.998512 0.000000 0.844079 0.536218 0.000000 -0.100924 -0.994894 0.000000 -0.718985 -0.695026 0.000000 -0.251625 -0.967825 0.000000 -0.841269 -0.540617 0.000000 -0.448789 -0.893638 0.000000 0.708512 0.705699 0.000000 -0.871433 -0.490515 0.000000 -0.772731 0.634733 0.000000 -0.713400 -0.700757 0.000000 -0.988695 -0.149940 0.000000 0.813988 0.580881 0.000000 -0.818829 0.574037 0.000000 -0.996382 -0.084991 0.000000 0.086785 0.996227 0.000000 -0.744195 0.667963 0.000000 -0.781115 -0.624387 0.000000 0.643802 0.765192 0.000000 0.784825 0.619717 0.000000 -0.696531 0.717527 0.000000 -0.058051 0.998314 0.000000 0.840806 0.541336 0.000000 0.807227 0.590241 0.000000 -0.985946 0.167067 0.000000 0.932001 0.362455 0.000000 -0.976882 0.213779 0.000000 -0.887231 0.461325 0.000000 -0.751287 0.659976 0.000000 0.950682 0.310168 0.000000 0.930579 0.366092 0.000000 -0.998610 0.052708 0.000000 -0.926428 0.376472 0.000000 -0.737121 0.675761 0.000000 -0.966950 -0.254964 0.000000 0.962785 0.270268 0.000000 0.967952 -0.251135 0.000000 0.266964 -0.963707 0.000000 0.869048 -0.494727 0.000000 0.980811 -0.194960 0.000000 0.290832 0.956774 0.000000 0.882886 -0.469587 0.000000 -0.789020 0.614367 0.000000 0.832693 0.553735 0.000000 0.903105 -0.429420 0.000000 -0.137458 -0.990508 0.000000 0.772840 -0.634601 0.000000 -0.882203 -0.470869 0.000000 -0.311666 -0.950192 0.000000 0.238153 -0.971228 0.000000 0.620678 -0.784066 0.000000 -0.402508 -0.915416 0.000000 -0.232482 -0.972601 0.000000 -0.660794 -0.750567 0.000000 -0.159489 -0.987200 0.000000 0.403614 -0.914929 0.000000 0.388076 -0.921628 0.000000 -0.479518 -0.877532 0.000000 -0.583574 -0.812060 0.000000 -0.995698 -0.092655 0.000000 -0.672157 -0.740409 0.000000 0.707609 -0.706604 0.000000 -0.660991 -0.750394 0.000000 0.725277 0.688457 0.000000 -0.764576 0.644533 0.000000 0.456161 0.889897 0.000000 0.871077 0.491147 0.000000 0.990992 -0.133921 0.000000 0.813422 0.581674 0.000000 -0.600477 0.799642 0.000000 -0.245616 -0.969367 0.000000 0.971070 0.238797 0.000000 -0.999563 -0.029547 0.000000 0.106954 0.994264 0.000000 0.469629 0.882864 0.000000 -0.867271 0.497837 0.000000 0.482537 0.875875 0.000000 -0.754440 0.656369 0.000000 0.670149 0.742227 0.000000 -0.940061 0.341007 0.000000 0.945838 0.324638 0.000000 0.992993 0.118170 0.000000 -0.916697 0.399583 0.000000 0.820080 0.572249 0.000000 -0.720970 0.692967 0.000000 -0.766579 0.642150 0.000000 0.842220 0.539134 0.000000 0.701188 0.712976 0.000000 -0.877080 0.480345 0.000000 -0.761252 0.648456 0.000000 0.558821 0.829289 0.000000 0.991239 0.132077 0.000000 -0.960192 0.279342 0.000000 0.574836 0.818269 0.000000 0.782906 -0.622141 0.000000 0.192884 -0.981222 0.000000 0.519189 -0.854659 0.000000 0.593558 0.804791 0.000000 0.960371 -0.278725 0.000000 0.386519 -0.922281 0.000000 -0.741169 -0.671318 0.000000 0.983801 -0.179262 0.000000 0.990662 -0.136341 0.000000 0.834797 -0.550558 0.000000 0.997909 -0.064632 0.000000 0.740603 -0.671943 0.000000 0.490976 -0.871173 0.000000 -0.091636 -0.995793 0.000000 0.465146 -0.885234 0.000000 0.469429 -0.882970 0.000000 0.120005 -0.992773 0.000000 0.273230 -0.961949 0.000000 -0.532979 0.846129 0.000000 -0.435328 -0.900272 0.000000 0.252877 -0.967498 0.000000 0.415944 0.909390 0.000000 -0.349681 0.936869 0.000000 -0.301134 -0.953582 0.000000 -0.009972 -0.999950 0.000000 -0.933461 0.358679 0.000000 -0.886027 -0.463633 0.000000 -0.415939 0.909392 0.000000 -0.747177 0.664625 0.000000 -0.824223 -0.566265 0.000000 -0.465911 -0.884832 0.000000 0.640076 0.768311 0.000000 0.999490 0.031946 0.000000 -0.739587 0.673061 0.000000 0.854133 0.520055 0.000000 0.589544 0.807737 0.000000 -0.947181 -0.320699 0.000000 -0.512664 0.858589 0.000000 0.329059 0.944309 0.000000 0.119835 -0.992794 0.000000 -0.493607 -0.869685 0.000000 -0.742971 0.669323 0.000000 -0.215528 -0.976498 0.000000 0.485876 0.874028 0.000000 0.939100 -0.343643 0.000000 0.955968 0.293470 0.000000 -0.645226 -0.763991 0.000000 -0.971223 0.238172 0.000000 -0.455685 0.890141 0.000000 -0.767891 0.640581 0.000000 -0.944422 0.328736 0.000000 0.510733 0.859739 0.000000 -0.496466 0.868056 0.000000 -0.463100 0.886306 0.000000 -0.650085 0.759861 0.000000 0.704390 0.709814 0.000000 0.823011 0.568025 0.000000 -0.826241 0.563317 0.000000 -0.850769 0.525540 0.000000 0.879798 0.475348 0.000000 0.958026 0.286681 0.000000 -0.157199 0.987567 0.000000 0.794350 0.607460 0.000000 0.993862 -0.110628 0.000000 0.396913 -0.917856 0.000000 0.996214 -0.086934 0.000000 0.999660 0.026086 0.000000 0.864618 -0.502429 0.000000 -0.961638 -0.274321 0.000000 0.392606 -0.919707 0.000000 0.328045 -0.944662 0.000000 -0.084431 -0.996429 0.000000 0.750907 -0.660408 0.000000 0.489235 -0.872152 0.000000 0.522668 -0.852536 0.000000 0.382771 -0.923843 0.000000 -0.012422 -0.999923 0.000000 0.755598 -0.655035 0.000000 0.186252 -0.982502 0.000000 0.542438 -0.840096 0.000000 0.517134 -0.855904 0.000000 0.154047 -0.988064 0.000000 0.293146 -0.956068 0.000000 0.959066 -0.283182 0.000000 0.048876 -0.998805 0.000000 -0.312243 -0.950002 0.000000 0.561828 -0.827254 0.000000 -0.532829 -0.846223 0.000000 0.155741 0.987798 0.000000 0.991584 -0.129468 0.000000 0.275285 -0.961363 0.000000 -0.962810 -0.270180 0.000000 -0.739837 0.672786 0.000000 -0.568526 -0.822666 0.000000 -0.152150 -0.988357 0.000000 -0.937495 0.347999 0.000000 -0.696218 0.717831 0.000000 -0.938082 -0.346414 0.000000 0.793729 -0.608272 0.000000 -0.111022 0.993818 0.000000 -0.573600 0.819136 0.000000 -0.222606 -0.974909 0.000000 -0.877536 -0.479512 0.000000 0.294157 -0.955757 0.000000 -0.863972 0.503540 0.000000 -0.354528 -0.935046 0.000000 -0.263778 -0.964584 0.000000 -0.359198 -0.933261 0.000000 -0.111544 -0.993759 0.000000 -0.894826 -0.446415 0.000000 0.854208 -0.519932 0.000000 -0.997305 0.073368 0.000000 -0.338092 0.941113 0.000000 0.131235 0.991351 0.000000 -0.700244 0.713903 0.000000 -0.667991 0.744170 0.000000 -0.678576 0.734531 0.000000 -0.798752 0.601660 0.000000 -0.383209 0.923662 0.000000 -0.489325 0.872102 0.000000 0.390862 0.920449 0.000000 0.463042 0.886336 0.000000 -0.219710 0.975565 0.000000 -0.908282 0.418359 0.000000 0.726772 0.686879 0.000000 0.413239 0.910622 0.000000 -0.977304 0.211841 0.000000 0.998708 0.050809 0.000000 0.480631 0.876923 0.000000 -0.821447 0.570285 0.000000 0.665395 0.746492 0.000000 0.757274 0.653097 0.000000 -0.916742 0.399481 0.000000 0.957142 -0.289619 0.000000 0.489663 -0.871912 0.000000 -0.913584 0.406651 0.000000 0.021821 -0.999762 0.000000 0.800635 -0.599153 0.000000 0.385766 -0.922597 0.000000 -0.901737 0.432284 0.000000 -0.868452 -0.495774 0.000000 0.675385 -0.737465 0.000000 0.300746 -0.953704 0.000000 0.489856 -0.871804 0.000000 0.050293 -0.998735 0.000000 -0.978672 0.205431 0.000000 -0.991901 -0.127013 0.000000 0.441288 -0.897366 0.000000 0.049432 -0.998777 0.000000 0.471830 -0.881689 0.000000 0.059582 -0.998223 0.000000 0.174497 -0.984658 0.000000 -0.169877 -0.985465 0.000000 0.704033 -0.710167 0.000000 -0.091449 -0.995810 0.000000 -0.167088 0.985942 0.000000 0.235756 0.971812 0.000000 -0.805890 0.592065 0.000000 -0.776355 -0.630295 0.000000 0.945602 -0.325327 0.000000 0.994102 0.108452 0.000000 -0.075807 -0.997122 0.000000 -0.910190 0.414190 0.000000 -0.134200 -0.990954 0.000000 -0.881513 -0.472160 0.000000 -0.937993 -0.346654 0.000000 -0.146382 -0.989228 0.000000 -0.707404 0.706810 0.000000 -0.569955 -0.821676 0.000000 0.875475 0.483263 0.000000 -0.841872 -0.539677 0.000000 -0.565540 -0.824721 0.000000 -0.678518 0.734584 0.000000 0.605682 0.795706 0.000000 -0.914962 0.403541 0.000000 -0.937368 0.348341 0.000000 -0.867800 0.496914 0.000000 -0.783722 0.621112 0.000000 -0.996768 -0.080328 0.000000 -0.674003 0.738728 0.000000 0.955449 0.295155 0.000000 0.517147 0.855897 0.000000 -0.345902 0.938271 0.000000 -0.912146 0.409865 0.000000 -0.748969 0.662605 0.000000 0.290928 0.956745 0.000000 0.565959 0.824433 0.000000 0.457597 0.889160 0.000000 -0.526133 0.850403 0.000000 -0.796143 0.605109 0.000000 0.220288 0.975435 0.000000 -0.689180 0.724590 0.000000 -0.622389 0.782708 0.000000 -0.991152 0.132732 0.000000 0.999466 0.032674 0.000000 0.700011 0.714132 0.000000 0.285684 0.958324 0.000000 -0.955316 0.295587 0.000000 -0.460949 0.887427 0.000000 -0.825293 0.564705 0.000000 0.567368 0.823465 0.000000 0.679144 0.734005 0.000000 -0.848073 0.529879 0.000000 0.447626 -0.894221 0.000000 -0.983378 0.181570 0.000000 0.934067 0.357099 0.000000 -0.947049 0.321089 0.000000 -0.822767 0.568379 0.000000 -0.542596 0.839994 0.000000 0.640840 -0.767675 0.000000 -0.783759 -0.621065 0.000000 -0.301367 -0.953508 0.000000 -0.935908 0.352245 0.000000 0.738942 -0.673769 0.000000 0.380522 -0.924772 0.000000 0.485983 -0.873968 0.000000 -0.263450 -0.964673 0.000000 0.341013 -0.940059 0.000000 0.829784 -0.558085 0.000000 0.540910 -0.841081 0.000000 0.208971 -0.977922 0.000000 -0.136818 -0.990596 0.000000 0.214200 -0.976790 0.000000 -0.316009 -0.948756 0.000000 -0.291454 -0.956585 0.000000 -0.322673 0.946510 0.000000 0.724054 -0.689743 0.000000 -0.816180 -0.577798 0.000000 -0.259063 0.965860 0.000000 0.486634 -0.873606 0.000000 -0.960000 -0.280001 0.000000 -0.959707 0.281002 0.000000 -0.021191 0.999775 0.000000 -0.690659 -0.723181 0.000000 -0.442058 -0.896986 0.000000 -0.922343 -0.386372 0.000000 0.316303 0.948658 0.000000 -0.752685 -0.658381 0.000000 -0.903590 -0.428399 0.000000 -0.933937 -0.357437 0.000000 0.949282 -0.314425 0.000000 0.999993 0.003817 0.000000 -0.326634 -0.945151 0.000000 -0.834103 -0.551609 0.000000 0.155065 0.987904 0.000000 0.862731 0.505663 0.000000 -0.090137 -0.995929 0.000000 0.404867 0.914376 0.000000 0.992478 0.122427 0.000000 -0.710372 0.703826 0.000000 0.459614 0.888119 0.000000 -0.998755 0.049884 0.000000 -0.381964 0.924177 0.000000 -0.530024 0.847982 0.000000 0.479381 0.877607 0.000000 0.933033 0.359790 0.000000 -0.669089 0.743182 0.000000 0.288654 0.957433 0.000000 0.671363 0.741129 0.000000 -0.121285 0.992618 0.000000 0.879041 0.476746 0.000000 -0.943383 0.331705 0.000000 -0.732691 0.680561 0.000000 0.344607 0.938747 0.000000 -0.258649 0.965971 0.000000 -0.437475 0.899231 0.000000 -0.875189 0.483781 0.000000 0.916149 0.400837 0.000000 -0.114569 0.993415 0.000000 -0.532112 0.846674 0.000000 -0.530728 0.847542 0.000000 0.754138 0.656716 0.000000 0.882763 0.469818 0.000000 -0.749458 0.662052 0.000000 0.741834 0.670583 0.000000 -0.738133 0.674655 0.000000 0.747195 0.664605 0.000000 -0.583725 0.811951 0.000000 -0.535424 0.844583 0.000000 0.991671 0.128795 0.000000 -0.987684 0.156461 0.000000 -0.954748 0.297416 0.000000 -0.944750 0.327791 0.000000 -0.863379 0.504555 0.000000 0.457037 0.889448 0.000000 0.950127 0.311864 0.000000 0.497792 -0.867296 0.000000 0.396462 -0.918051 0.000000 0.416903 -0.908951 0.000000 0.286173 -0.958178 0.000000 0.253173 -0.967421 0.000000 -0.256678 0.966497 0.000000 0.977423 -0.211293 0.000000 0.066743 -0.997770 0.000000 0.252159 -0.967686 0.000000 0.556412 -0.830906 0.000000 0.991971 -0.126465 0.000000 0.321225 -0.947003 0.000000 -0.209669 -0.977773 0.000000 -0.796212 -0.605018 0.000000 -0.981068 -0.193664 0.000000 -0.870880 -0.491495 0.000000 -0.463682 -0.886002 0.000000 0.924426 0.381363 0.000000 0.031540 -0.999502 0.000000 -0.953952 -0.299960 0.000000 0.905867 0.423563 0.000000 -0.854024 -0.520233 0.000000 -0.754963 -0.655768 0.000000 0.997789 -0.066466 0.000000 -0.825768 -0.564009 0.000000 0.271870 -0.962334 0.000000 -0.967325 -0.253540 0.000000 -0.817070 -0.576538 0.000000 -0.770729 0.637163 0.000000 0.788290 0.615303 0.000000 -0.595092 -0.803658 0.000000 -0.659633 0.751588 0.000000 -0.568241 0.822862 0.000000 0.690680 0.723160 0.000000 0.669596 0.742726 0.000000 -0.938793 0.344481 0.000000 -0.998439 0.055856 0.000000 -0.841430 0.540366 0.000000 -0.883882 0.467711 0.000000 -0.187349 0.982293 0.000000 0.478631 0.878016 0.000000 -0.325817 0.945433 0.000000 0.347480 0.937687 0.000000 0.941684 0.336498 0.000000 0.285783 0.958294 0.000000 0.342164 0.939640 0.000000 0.830668 0.556768 0.000000 0.971415 0.237388 0.000000 0.703840 0.710358 0.000000 -0.841878 0.539668 0.000000 0.994014 0.109254 0.000000 -0.682423 0.730958 0.000000 -0.944713 0.327898 0.000000 -0.778261 0.627941 0.000000 -0.087608 0.996155 0.000000 0.987183 0.159595 0.000000 0.544650 0.838663 0.000000 -0.967670 0.252221 0.000000 -0.783993 0.620770 0.000000 -0.388541 0.921431 0.000000 0.629279 0.777179 0.000000 0.902852 -0.429950 0.000000 0.712394 -0.701780 0.000000 0.998129 -0.061144 0.000000 -0.991436 -0.130591 0.000000 -0.583679 0.811985 0.000000 0.666251 0.745727 0.000000 -0.915985 0.401212 0.000000 -0.574009 0.818849 0.000000 0.640673 0.767814 0.000000 -0.593449 -0.804871 0.000000 0.743468 -0.668771 0.000000 -0.995495 -0.094810 0.000000 0.581308 -0.813684 0.000000 0.978711 -0.205242 0.000000 0.622545 0.782584 0.000000 0.761752 -0.647869 0.000000 -0.787103 0.616821 0.000000 -0.099717 -0.995016 0.000000 0.834828 -0.550511 0.000000 0.087369 -0.996176 0.000000 0.622143 -0.782904 0.000000 -0.263991 -0.964525 0.000000 0.444599 -0.895730 0.000000 0.791751 -0.610844 0.000000 0.986580 0.163279 0.000000 -0.994316 -0.106467 0.000000 0.175336 -0.984509 0.000000 -0.322775 0.946476 0.000000 -0.815457 0.578818 0.000000 -0.309941 -0.950756 0.000000 0.566240 0.824240 0.000000 -0.175388 -0.984499 0.000000 -0.999432 -0.033692 0.000000 0.036234 0.999343 0.000000 0.863391 -0.504535 0.000000 -0.852801 -0.522236 0.000000 0.973904 -0.226960 0.000000 -0.766624 -0.642096 0.000000 -0.844830 -0.535035 0.000000 -0.876536 -0.481335 0.000000 -0.861592 -0.507601 0.000000 -0.679594 -0.733588 0.000000 -0.995726 -0.092355 0.000000 -0.744105 0.668062 0.000000 0.725559 0.688160 0.000000 -0.996240 -0.086639 0.000000 -0.657435 0.753511 0.000000 0.878943 -0.476926 0.000000 0.497610 0.867401 0.000000 0.990203 0.139635 0.000000 0.905100 0.425199 0.000000 -0.450060 0.892998 0.000000 -0.997632 0.068779 0.000000 0.321712 0.946838 0.000000 -0.145154 -0.989409 0.000000 -0.398437 0.917196 0.000000 0.359388 0.933188 0.000000 0.955606 0.294649 0.000000 0.997530 0.070245 0.000000 -0.815777 0.578366 0.000000 -0.994861 0.101248 0.000000 0.135078 0.990835 0.000000 -0.214239 0.976781 0.000000 0.775081 0.631862 0.000000 -0.772614 0.634876 0.000000 0.188684 0.982038 0.000000 -0.035543 0.999368 0.000000 0.816766 0.576969 0.000000 -0.767859 0.640619 0.000000 0.620887 0.783900 0.000000 -0.778692 0.627407 0.000000 0.412026 0.911172 0.000000 0.991129 0.132902 0.000000 -0.878144 -0.478396 0.000000 0.104331 -0.994543 0.000000 0.951460 -0.307773 0.000000 0.982281 -0.187413 0.000000 -0.467345 0.884075 0.000000 0.586047 -0.810277 0.000000 0.681485 0.731832 0.000000 -0.803823 0.594869 0.000000 -0.875970 0.482366 0.000000 -0.486027 0.873944 0.000000 0.612787 0.790248 0.000000 0.953372 -0.301799 0.000000 -0.953957 0.299944 0.000000 -0.207375 -0.978262 0.000000 -0.844248 -0.535953 0.000000 -0.634206 0.773164 0.000000 0.999859 -0.016765 0.000000 0.739640 -0.673003 0.000000 -0.586096 -0.810242 0.000000 0.869490 -0.493950 0.000000 0.207085 -0.978323 0.000000 0.466389 -0.884580 0.000000 -0.978188 0.207722 0.000000 -0.035253 -0.999378 0.000000 0.447060 0.894504 0.000000 0.239279 -0.970951 0.000000 0.436217 -0.899841 0.000000 0.212046 0.977260 0.000000 -0.991729 -0.128351 0.000000 -0.997823 -0.065955 0.000000 0.197600 -0.980283 0.000000 0.997086 -0.076287 0.000000 0.753176 -0.657819 0.000000 -0.267787 -0.963478 0.000000 0.928605 -0.371070 0.000000 -0.868026 -0.496519 0.000000 -0.818185 0.574955 0.000000 -0.999947 -0.010341 0.000000 -0.818151 -0.575003 0.000000 -0.988323 -0.152376 0.000000 -0.488435 -0.872600 0.000000 0.811817 -0.583911 0.000000 -0.887780 -0.460268 0.000000 -0.976004 -0.217754 0.000000 0.835842 -0.548971 0.000000 -0.250306 0.968167 0.000000 -0.709245 -0.704962 0.000000 0.967228 -0.253908 0.000000 0.666158 0.745810 0.000000 -0.997572 -0.069648 0.000000 -0.043422 0.999057 0.000000 -0.888775 -0.458343 0.000000 0.999079 0.042916 0.000000 -0.427506 0.904013 0.000000 -0.778603 0.627517 0.000000 0.783000 0.622022 0.000000 0.370943 0.928655 0.000000 0.792290 0.610145 0.000000 -0.514032 0.857771 0.000000 0.366759 -0.930316 0.000000 -0.664783 0.747037 0.000000 0.672922 0.739713 0.000000 0.828085 0.560603 0.000000 -0.890680 0.454631 0.000000 0.349254 0.937028 0.000000 0.539026 0.842289 0.000000 -0.720466 0.693490 0.000000 0.787777 -0.615961 0.000000 0.827839 0.560966 0.000000 0.420669 0.907214 0.000000 0.987973 0.154625 0.000000 -0.899787 0.436330 0.000000 -0.436222 0.899839 0.000000 0.823011 0.568026 0.000000 0.171620 0.985163 0.000000 -0.670797 0.741641 0.000000 -0.866523 0.499138 0.000000 0.602060 0.798451 0.000000 -0.527693 -0.849435 0.000000 -0.261990 0.965070 0.000000 0.664368 -0.747405 0.000000 0.734117 -0.679024 0.000000 0.784946 -0.619564 0.000000 -0.858367 0.513036 0.000000 -0.351390 0.936229 0.000000 -0.911061 0.412271 0.000000 0.655195 0.755460 0.000000 0.898248 0.439489 0.000000 -0.716560 0.697525 0.000000 0.375725 -0.926731 0.000000 0.940784 0.339007 0.000000 0.954660 0.297698 0.000000 -0.301112 0.953589 0.000000 0.945557 -0.325455 0.000000 0.836840 0.547447 0.000000 0.894960 -0.446145 0.000000 -0.782892 0.622158 0.000000 0.457850 -0.889029 0.000000 -0.737905 0.674904 0.000000 0.690213 -0.723606 0.000000 -0.875899 0.482495 0.000000 0.032161 -0.999483 0.000000 0.728847 0.684676 0.000000 -0.746887 0.664951 0.000000 -0.577459 -0.816420 0.000000 -0.255175 -0.966895 0.000000 -0.046874 -0.998901 0.000000 -0.078891 -0.996883 0.000000 0.726423 -0.687248 0.000000 -0.885270 -0.465077 0.000000 0.410164 -0.912012 0.000000 0.922770 -0.385352 0.000000 -0.022551 -0.999746 0.000000 -0.685412 -0.728155 0.000000 0.731552 0.681785 0.000000 -0.606894 0.794783 0.000000 -0.814438 0.580250 0.000000 -0.619386 -0.785086 0.000000 0.534910 0.844909 0.000000 -0.865924 -0.500175 0.000000 0.440085 -0.897956 0.000000 -0.820346 0.571867 0.000000 0.955451 -0.295151 0.000000 -0.359633 -0.933094 0.000000 -0.929879 -0.367866 0.000000 -0.602368 -0.798218 0.000000 0.995303 -0.096809 0.000000 0.999687 -0.025022 0.000000 -0.830035 -0.557711 0.000000 0.724843 -0.688914 0.000000 -0.924371 -0.381495 0.000000 -0.836981 0.547232 0.000000 -0.794053 -0.607849 0.000000 0.918496 0.395431 0.000000 -0.139028 0.990288 0.000000 0.977059 0.212970 0.000000 -0.671683 0.740839 0.000000 0.760092 0.649816 0.000000 0.170957 0.985279 0.000000 -0.979723 0.200356 0.000000 -0.502599 0.864519 0.000000 -0.803022 -0.595950 0.000000 0.127917 0.991785 0.000000 0.787590 0.616200 0.000000 -0.481987 0.876178 0.000000 0.411931 0.911215 0.000000 -0.999947 0.010266 0.000000 -0.114492 0.993424 0.000000 0.875898 -0.482496 0.000000 -0.467838 0.883814 0.000000 -0.819056 0.573714 0.000000 0.739063 0.673636 0.000000 0.581012 0.813895 0.000000 -0.998258 0.059000 0.000000 0.967758 0.251883 0.000000 0.703517 0.710678 0.000000 0.617971 -0.786201 0.000000 0.997094 0.076183 0.000000 0.616176 0.787608 0.000000 -0.771960 0.635671 0.000000 0.436825 -0.899547 0.000000 0.437664 -0.899139 0.000000 0.567534 -0.823350 0.000000 0.374977 -0.927034 0.000000 -0.976769 -0.214294 0.000000 -0.208433 -0.978037 0.000000 -0.955820 -0.293951 0.000000 0.931436 0.363906 0.000000 0.751249 -0.660019 0.000000 -0.887128 0.461523 0.000000 -0.972454 0.233095 0.000000 0.821364 0.570404 0.000000 -0.587485 0.809235 0.000000 0.779467 0.626443 0.000000 0.999647 0.026560 0.000000 0.829437 0.558601 0.000000 -0.686778 0.726868 0.000000 -0.027624 0.999618 0.000000 0.796021 -0.605269 0.000000 0.711050 0.703141 0.000000 -0.999611 -0.027888 0.000000 0.721725 -0.692180 0.000000 0.898565 0.438840 0.000000 -0.586937 0.809632 0.000000 -0.993301 -0.115556 0.000000 0.070520 -0.997510 0.000000 0.796711 0.604361 0.000000 0.177385 -0.984142 0.000000 0.999922 -0.012476 0.000000 -0.999998 0.002037 0.000000 -0.770426 -0.637530 0.000000 0.639566 -0.768736 0.000000 0.294463 -0.955663 0.000000 -0.164880 -0.986314 0.000000 -0.938086 0.346402 0.000000 -0.800813 -0.598914 0.000000 0.993824 -0.110969 0.000000 0.526582 0.850124 0.000000 -0.521621 -0.853178 0.000000 -0.546701 0.837328 0.000000 -0.110545 0.993871 0.000000 -0.102426 -0.994741 0.000000 0.998163 -0.060587 0.000000 -0.388924 0.921270 0.000000 -0.479030 -0.877799 0.000000 -0.999482 -0.032179 0.000000 -0.921340 0.388758 0.000000 0.927361 -0.374167 0.000000 -0.836084 0.548601 0.000000 0.671937 0.740608 0.000000 -0.675958 -0.736940 0.000000 0.225242 0.974303 0.000000 -0.560284 0.828301 0.000000 0.997519 0.070393 0.000000 -0.969832 -0.243775 0.000000 -0.844981 0.534796 0.000000 0.489584 0.871956 0.000000 -0.799910 0.600120 0.000000 0.552168 0.833733 0.000000 -0.619219 0.785218 0.000000 0.011624 0.999932 0.000000 0.259415 0.965766 0.000000 0.080554 0.996750 0.000000 -0.180583 0.983560 0.000000 -0.618301 0.785942 0.000000 0.291720 0.956504 0.000000 0.178529 0.983935 0.000000 0.741394 0.671070 0.000000 0.070868 0.997486 0.000000 -0.528096 0.849185 0.000000 -0.975874 0.218333 0.000000 -0.603161 0.797619 0.000000 0.826765 0.562548 0.000000 0.536968 0.843603 0.000000 -0.757957 0.652305 0.000000 0.625350 0.780344 0.000000 -0.800130 0.599826 0.000000 0.763396 0.645931 0.000000 -0.084841 0.996395 0.000000 -0.861892 0.507092 0.000000 -0.423849 0.905733 0.000000 -0.675938 0.736959 0.000000 0.556708 0.830708 0.000000 0.658633 0.752464 0.000000 0.787197 -0.616702 0.000000 0.762367 -0.647145 0.000000 -0.336346 0.941739 0.000000 -0.996941 0.078151 0.000000 0.357151 0.934047 0.000000 -0.931179 0.364563 0.000000 -0.565397 0.824819 0.000000 0.894886 0.446295 0.000000 -0.807874 -0.589355 0.000000 -0.416467 0.909151 0.000000 0.998863 0.047677 0.000000 -0.219472 0.975619 0.000000 0.859892 0.510476 0.000000 -0.969837 0.243755 0.000000 0.799546 0.600604 0.000000 -0.119019 0.992892 0.000000 0.970987 0.239134 0.000000 -0.618523 0.785766 0.000000 0.850319 0.526268 0.000000 0.302366 0.953192 0.000000 -0.857305 0.514809 0.000000 -0.772967 0.634447 0.000000 0.877939 0.478773 0.000000 0.613675 0.789559 0.000000 0.769197 -0.639011 0.000000 -0.961809 -0.273723 0.000000 -0.892238 0.451565 0.000000 -0.657970 -0.753044 0.000000 0.254628 -0.967039 0.000000 -0.721113 -0.692817 0.000000 -0.564133 0.825684 0.000000 0.894552 0.446963 0.000000 0.211480 -0.977382 0.000000 0.388602 -0.921406 0.000000 0.222800 -0.974864 0.000000 -0.860927 0.508728 0.000000 -0.193814 -0.981038 0.000000 -0.878317 -0.478079 0.000000 -0.158698 -0.987327 0.000000 -0.833027 -0.553232 0.000000 -0.602733 -0.797943 0.000000 -0.987427 -0.158078 0.000000 0.675978 0.736922 0.000000 0.833172 -0.553015 0.000000 0.999824 -0.018757 0.000000 -0.621064 -0.783760 0.000000 0.983591 -0.180410 0.000000 -1.000000 -0.000440 0.000000 -0.840358 -0.542032 0.000000 0.354827 0.934932 0.000000 -0.333838 0.942631 0.000000 0.604498 0.796606 0.000000 -0.425188 0.905105 0.000000 0.816073 0.577948 0.000000 0.068661 0.997640 0.000000 0.212260 0.977213 0.000000 -0.288520 0.957474 0.000000 0.908631 0.417599 0.000000 -0.345763 0.938322 0.000000 -0.596939 0.802286 0.000000 0.232307 0.972643 0.000000 0.542391 0.840126 0.000000 -0.256770 0.966472 0.000000 -0.972083 0.234638 0.000000 -0.259217 0.965819 0.000000 0.373303 0.927710 0.000000 0.466481 0.884531 0.000000 -0.612026 0.790838 0.000000 0.993415 0.114569 0.000000 -0.727758 0.685834 0.000000 0.989879 0.141912 0.000000 -0.597791 0.801652 0.000000 0.882397 0.470506 0.000000 0.523296 0.852151 0.000000 0.407104 -0.913382 0.000000 0.490907 0.871212 0.000000 0.231432 -0.972851 0.000000 -0.769599 0.638527 0.000000 -0.640434 0.768013 0.000000 0.807555 0.589792 0.000000 0.916163 0.400807 0.000000 0.476142 -0.879368 0.000000 -0.937553 -0.347842 0.000000 -0.551689 0.834050 0.000000 -0.524716 0.851277 0.000000 0.817292 0.576223 0.000000 0.767864 0.640613 0.000000 -0.894827 0.446413 0.000000 0.268115 0.963387 0.000000 -0.305504 0.952191 0.000000 -0.968957 0.247230 0.000000 -0.924237 -0.381819 0.000000 0.715843 0.698262 0.000000 -0.933780 0.357847 0.000000 -0.327762 0.944760 0.000000 -0.032231 0.999480 0.000000 -0.033633 0.999434 0.000000 0.561831 0.827252 0.000000 -0.999993 0.003756 0.000000 -0.883854 0.467763 0.000000 0.964671 0.263458 0.000000 0.513752 -0.857939 0.000000 0.436234 0.899833 0.000000 0.969030 -0.246944 0.000000 -0.545602 0.838045 0.000000 0.281071 0.959687 0.000000 0.992943 0.118596 0.000000 0.443796 0.896128 0.000000 0.999875 0.015835 0.000000 -0.780047 0.625721 0.000000 0.386240 -0.922398 0.000000 -0.463862 -0.885908 0.000000 0.847637 0.530576 0.000000 0.851076 -0.525042 0.000000 0.993568 -0.113236 0.000000 0.748099 0.663587 0.000000 -0.838552 0.544821 0.000000 0.811983 0.583681 0.000000 -0.069165 0.997605 0.000000 0.430150 0.902757 0.000000 0.294415 0.955678 0.000000 -0.908906 -0.417001 0.000000 0.088063 -0.996115 0.000000 0.521773 -0.853085 0.000000 -0.573594 0.819140 0.000000 -0.527116 -0.849793 0.000000 -0.949719 0.313103 0.000000 0.990118 -0.140240 0.000000 0.694540 0.719454 0.000000 0.719375 0.694622 0.000000 0.960133 0.279542 0.000000 -0.980769 -0.195173 0.000000 0.416396 0.909183 0.000000 -0.779766 0.626071 0.000000 -0.501764 0.865004 0.000000 0.807398 -0.590008 0.000000 0.985789 -0.167990 0.000000 -0.983786 0.179345 0.000000 0.970014 0.243049 0.000000 -0.661351 0.750076 0.000000 0.558791 0.829308 0.000000 -0.974754 0.223283 0.000000 0.674405 0.738361 0.000000 -0.313235 0.949676 0.000000 -0.666597 0.745418 0.000000 0.922191 0.386734 0.000000 0.461710 0.887031 0.000000 -0.804453 0.594016 0.000000 -0.9884