<?xml version='1.0'?>
<VTKFile type='PolyData' version='0.1' byte_order='LittleEndian'><PolyData>
<Piece NumberOfPoints='9000' NumberOfVerts='0' NumberOfLines='0' NumberOfStrips='0' NumberOfPolys='3000'>
<Points>
<DataArray type='Float32' NumberOfComponents='3' format='ascii'>
10.710570 48.903625 0.000000 7.687151 49.488681 0.000000 8.846870 47.382815 0.000000 4.609463 49.878026 0.000000 6.480227 47.122301 0.000000 7.663674 49.484135 0.000000 8.854650 47.337189 0.000000 7.664887 49.426237 0.000000 6.512354 47.049188 0.000000 6.519022 47.055992 0.000000 4.632022 49.800620 0.000000 4.560889 47.224483 0.000000 1.642749 49.957628 0.000000 2.546088 47.085839 0.000000 4.615594 49.792237 0.000000 4.560874 47.215833 0.000000 4.615514 49.792121 0.000000 2.546057 47.085829 0.000000 2.527257 47.078883 0.000000 1.643375 49.957374 0.000000 -0.327967 47.683740 0.000000 -1.641324 49.955009 0.000000 -0.330497 47.681255 0.000000 1.641410 49.954999 0.000000 -0.334136 47.687166 0.000000 -1.644229 49.960218 0.000000 -2.908155 47.878421 0.000000 -4.619890 49.815223 0.000000 -2.941021 47.892806 0.000000 -1.645574 49.956639 0.000000 -2.935382 47.886535 0.000000 -4.626365 49.798248 0.000000 -4.533778 47.829630 0.000000 -7.678289 49.465404 0.000000 -6.076437 47.746929 0.000000 -4.621470 49.838514 0.000000 -4.533770 47.830734 0.000000 -4.633258 49.799007 0.000000 -6.096875 47.713484 0.000000 -6.084704 47.702368 0.000000 -7.680698 49.426275 0.000000 -8.437294 47.180405 0.000000 -10.706572 48.917270 0.000000 -8.421036 47.238190 0.000000 -7.680693 49.489466 0.000000 19.595647 46.207793 0.000000 16.698852 47.252754 0.000000 16.356814 45.590375 0.000000 16.668263 47.246359 0.000000 13.743686 48.210832 0.000000 16.269997 45.596546 0.000000 16.252590 45.534294 0.000000 13.712537 48.135228 0.000000 13.919522 45.068354 0.000000 8.848064 47.348642 0.000000 10.971230 45.557075 0.000000 10.706291 48.876138 0.000000 10.708862 48.902223 0.000000 10.986597 45.584208 0.000000 13.696181 48.154372 0.000000 13.901855 45.054227 0.000000 13.681273 48.120156 0.000000 10.966703 45.555277 0.000000 10.986661 45.536899 0.000000 8.858126 47.322051 0.000000 8.391093 45.743573 0.000000 6.511869 47.049181 0.000000 8.391094 45.743396 0.000000 8.855899 47.322536 0.000000 8.388911 45.742153 0.000000 6.510985 47.049821 0.000000 6.933148 44.924307 0.000000 2.537546 47.085746 0.000000 4.538988 44.912290 0.000000 4.552934 47.204917 0.000000 6.933734 44.921485 0.000000 6.511430 47.046924 0.000000 4.537185 44.922778 0.000000 4.555863 47.218076 0.000000 4.539625 44.925399 0.000000 6.513956 47.049642 0.000000 4.527786 44.919431 0.000000 2.528426 47.095795 0.000000 2.377784 44.963804 0.000000 2.375518 44.952252 0.000000 2.527639 47.084211 0.000000 0.309252 45.099363 0.000000 -0.332779 47.684851 0.000000 0.303743 45.094592 0.000000 2.522300 47.079454 0.000000 0.302132 45.098224 0.000000 -0.333595 47.688532 0.000000 -1.916719 46.145775 0.000000 -2.908349 47.878458 0.000000 -1.918048 46.144476 0.000000 -0.334915 47.687232 0.000000 -6.070961 47.701287 0.000000 -4.439455 45.908313 0.000000 -4.508189 47.823268 0.000000 -1.921918 46.150782 0.000000 -2.912136 47.885226 0.000000 -4.436687 45.900298 0.000000 -4.507991 47.820069 0.000000 -4.438703 45.905160 0.000000 -2.910123 47.887775 0.000000 -8.423912 47.168840 0.000000 -6.773315 46.084137 0.000000 -6.073333 47.699895 0.000000 -4.438590 45.907323 0.000000 -6.070177 47.700223 0.000000 -6.772693 46.085546 0.000000 -6.772028 46.083308 0.000000 -8.423031 47.167355 0.000000 -8.323844 45.328980 0.000000 -13.711183 48.158220 0.000000 -11.005794 45.681045 0.000000 -10.726189 48.915298 0.000000 -8.323874 45.329697 0.000000 -8.423524 47.168031 0.000000 -10.992491 45.619685 0.000000 -10.684694 48.879478 0.000000 -11.008163 45.649317 0.000000 -8.422331 47.169304 0.000000 -11.027300 45.672903 0.000000 -13.728511 48.154635 0.000000 -13.486002 45.738499 0.000000 -19.549163 46.196639 0.000000 -15.819985 45.282885 0.000000 -16.653793 47.245541 0.000000 -16.649483 47.247160 0.000000 -15.772583 45.303375 0.000000 -13.714916 48.180792 0.000000 -13.489545 45.735970 0.000000 -13.728630 48.152447 0.000000 -15.789566 45.277370 0.000000 22.305531 44.821629 0.000000 19.518458 46.131430 0.000000 20.354178 43.589520 0.000000 20.363912 43.536845 0.000000 19.522410 46.076847 0.000000 18.132901 43.602475 0.000000 16.244480 45.554072 0.000000 18.103673 43.595663 0.000000 19.501779 46.065188 0.000000 18.118077 43.580704 0.000000 16.241886 45.522841 0.000000 15.610927 43.157143 0.000000 13.911222 45.047141 0.000000 15.611006 43.158160 0.000000 16.242082 45.523815 0.000000 10.979638 45.545126 0.000000 13.035691 42.886773 0.000000 13.914693 45.043761 0.000000 15.614250 43.154504 0.000000 13.914521 45.043462 0.000000 13.036084 42.886275 0.000000 13.040189 42.880487 0.000000 10.982080 45.537240 0.000000 10.594496 42.466793 0.000000 6.931724 44.923534 0.000000 8.655553 43.875805 0.000000 8.387537 45.741233 0.000000 10.594225 42.464562 0.000000 10.981763 45.535009 0.000000 8.653318 43.876970 0.000000 8.387899 45.743839 0.000000 8.655148 43.878247 0.000000 10.983440 45.536463 0.000000 4.535824 44.922715 0.000000 6.566128 43.019721 0.000000 6.932254 44.921513 0.000000 8.656692 43.875108 0.000000 6.932436 44.922471 0.000000 6.566308 43.020673 0.000000 6.557805 43.021550 0.000000 4.526976 44.924448 0.000000 4.638593 42.377891 0.000000 0.311264 45.099223 0.000000 2.138084 42.715881 0.000000 2.377530 44.952111 0.000000 4.637547 42.370857 0.000000 4.527312 44.917632 0.000000 2.139064 42.726242 0.000000 2.378764 44.963841 0.000000 2.140499 42.727544 0.000000 4.528730 44.918966 0.000000 2.134659 42.720280 0.000000 0.308075 45.103393 0.000000 -0.437814 42.939985 0.000000 -4.430800 45.900888 0.000000 -2.214993 44.170619 0.000000 -1.915664 46.151409 0.000000 -0.439862 42.935504 0.000000 0.306375 45.098442 0.000000 -2.211417 44.165075 0.000000 -1.915070 46.145011 0.000000 -2.214082 44.164079 0.000000 0.303749 45.097464 0.000000 -2.215383 44.170951 0.000000 -4.431214 45.901195 0.000000 -4.481560 43.113552 0.000000 -8.318017 45.329560 0.000000 -6.599549 44.308527 0.000000 -6.765922 46.083396 0.000000 -4.481449 43.118151 0.000000 -4.431693 45.905839 0.000000 -6.598321 44.304017 0.000000 -6.765544 46.080566 0.000000 -6.599090 44.305690 0.000000 -4.431265 45.906199 0.000000 -10.984247 45.618598 0.000000 -8.821645 43.460974 0.000000 -8.315686 45.328097 0.000000 -6.597071 44.306998 0.000000 -8.315892 45.327342 0.000000 -8.821851 43.460213 0.000000 -8.821025 43.460310 0.000000 -10.983616 45.617952 0.000000 -11.140590 42.548780 0.000000 -15.764812 45.260755 0.000000 -13.395184 43.812702 0.000000 -13.461783 45.703963 0.000000 -11.140618 42.548921 0.000000 -10.984181 45.618096 0.000000 -13.362627 43.795210 0.000000 -13.459454 45.705425 0.000000 -13.376065 43.814824 0.000000 -11.000702 45.641733 0.000000 -13.367830 43.796147 0.000000 -15.748590 45.225920 0.000000 -15.572828 42.433185 0.000000 -19.497839 46.068596 0.000000 -18.037314 43.343678 0.000000 -15.748522 45.241655 0.000000 -15.576155 42.439596 0.000000 -15.751641 45.232368 0.000000 -18.042991 43.337498 0.000000 -18.046218 43.348569 0.000000 -19.502111 46.075984 0.000000 -20.301530 43.534787 0.000000 -22.317729 44.825055 0.000000 -20.301329 43.597770 0.000000 -19.537811 46.149974 0.000000 27.685948 41.755470 0.000000 25.067713 43.376642 0.000000 25.476175 40.778034 0.000000 25.464518 40.780342 0.000000 25.064530 43.380268 0.000000 22.348243 41.416372 0.000000 20.363077 43.544796 0.000000 22.304921 41.360693 0.000000 22.305875 44.790352 0.000000 25.030248 43.362454 0.000000 22.323239 44.830600 0.000000 22.312227 41.400959 0.000000 18.115514 43.593196 0.000000 19.542386 41.881603 0.000000 20.346766 43.536272 0.000000 22.302688 41.356341 0.000000 20.354036 43.534371 0.000000 19.556027 41.876616 0.000000 15.612062 43.156431 0.000000 17.461915 41.340818 0.000000 18.119029 43.580853 0.000000 19.549367 41.873302 0.000000 18.119437 43.582287 0.000000 17.462594 41.342167 0.000000 17.463392 41.339121 0.000000 15.613740 43.154787 0.000000 14.899544 40.556870 0.000000 13.035625 42.885925 0.000000 14.899059 40.556647 0.000000 15.613678 43.154465 0.000000 14.903299 40.550820 0.000000 13.039068 42.879378 0.000000 12.216635 40.532544 0.000000 10.593661 42.466655 0.000000 12.216984 40.533533 0.000000 13.039410 42.880352 0.000000 12.218005 40.532336 0.000000 10.593251 42.464313 0.000000 10.203237 40.391785 0.000000 6.561815 43.018852 0.000000 8.461929 41.562076 0.000000 8.652257 43.873240 0.000000 10.203090 40.390989 0.000000 10.593099 42.463521 0.000000 8.460500 41.563485 0.000000 8.652695 43.875280 0.000000 8.462080 41.564149 0.000000 10.594688 42.464193 0.000000 8.457874 41.563255 0.000000 6.557759 43.020286 0.000000 6.143359 40.455120 0.000000 4.638565 42.377900 0.000000 6.143599 40.456334 0.000000 6.557712 43.021529 0.000000 6.144414 40.455392 0.000000 4.639256 42.376945 0.000000 3.817699 40.747622 0.000000 2.138010 42.726443 0.000000 3.813135 40.741630 0.000000 4.636002 42.370292 0.000000 3.813510 40.741194 0.000000 2.138411 42.725961 0.000000 1.969728 39.855722 0.000000 1.967479 39.851835 0.000000 2.135977 42.721866 0.000000 -0.107782 40.894786 0.000000 -0.438352 42.940034 0.000000 -0.109729 40.893202 0.000000 2.134103 42.720334 0.000000 -4.479725 43.114406 0.000000 -2.323125 41.810678 0.000000 -2.213451 44.171872 0.000000 -0.110575 40.892813 0.000000 -0.438670 42.939300 0.000000 -2.319827 41.807496 0.000000 -2.213703 44.166667 0.000000 -2.323291 41.805412 0.000000 -0.442216 42.937152 0.000000 -2.323995 41.811219 0.000000 -4.480591 43.114929 0.000000 -4.551712 40.559854 0.000000 -8.821964 43.459874 0.000000 -6.772845 41.939863 0.000000 -6.597323 44.306910 0.000000 -6.597594 44.303615 0.000000 -6.772696 41.936599 0.000000 -4.480819 43.117801 0.000000 -4.551633 40.562625 0.000000 -4.480673 43.117880 0.000000 -6.772573 41.936662 0.000000 -11.140463 42.548450 0.000000 -9.122886 41.014119 0.000000 -8.821047 43.460309 0.000000 -6.772089 41.939302 0.000000 -
[...]
<PointData Vectors='Velocity Force Displacement'>
<DataArray type='Float32' Name='Velocity' NumberOfComponents='3' format='ascii'>
1.038637 5.027555 0.000000 1.306561 6.412988 0.000000 0.341665 5.881620 0.000000 -0.216703 7.426111 0.000000 -1.388811 6.630400 0.000000 -0.384233 6.127041 0.000000 1.352531 2.990282 0.000000 0.433641 2.463483 0.000000 1.469341 1.971954 0.000000 1.466308 1.975520 0.000000 0.279103 1.177758 0.000000 1.388703 1.152352 0.000000 0.062310 -0.989866 0.000000 1.402988 -0.302440 0.000000 0.070606 0.755557 0.000000 1.367521 0.718869 0.000000 0.042196 0.688847 0.000000 1.401440 -0.273556 0.000000 -0.099144 -0.978195 0.000000 0.017408 -0.991852 0.000000 -0.094190 -0.976019 0.000000 0.167962 -0.952444 0.000000 -0.062387 -0.962386 0.000000 0.057724 -1.010521 0.000000 -0.124218 -0.774577 0.000000 -0.109874 -0.536131 0.000000 -0.008157 -0.108832 0.000000 -0.604384 1.434759 0.000000 -2.328166 -0.012902 0.000000 -0.490544 -1.080980 0.000000 -2.321002 0.012536 0.000000 -0.583973 1.510649 0.000000 -2.458374 1.450852 0.000000 -1.018939 4.667947 0.000000 -1.231132 4.470153 0.000000 -0.972867 4.290497 0.000000 -2.547711 1.443987 0.000000 -1.071078 1.497889 0.000000 -2.644146 2.633173 0.000000 -1.268851 1.392889 0.000000 -0.381660 2.209597 0.000000 -1.528963 2.591903 0.000000 -1.019565 6.100656 0.000000 -0.888025 6.279705 0.000000 -1.064390 6.337704 0.000000 8.450625 12.669245 0.000000 6.588341 7.507071 0.000000 9.550761 6.897478 0.000000 3.914815 7.011921 0.000000 4.729426 9.482158 0.000000 2.521306 7.348299 0.000000 1.304863 2.434723 0.000000 2.577053 3.677145 0.000000 1.076952 3.575895 0.000000 1.179324 3.873240 0.000000 0.098830 2.587759 0.000000 2.113302 2.737204 0.000000 1.139676 4.855522 0.000000 1.096979 4.851921 0.000000 1.130101 4.816895 0.000000 0.249422 2.623326 0.000000 0.107129 2.612572 0.000000 0.215018 2.476314 0.000000 1.195115 2.338631 0.000000 0.891633 2.017228 0.000000 1.120942 1.953948 0.000000 0.880977 1.784633 0.000000 1.094437 1.965964 0.000000 0.858750 2.037254 0.000000 0.824064 1.388722 0.000000 1.044024 1.651707 0.000000 0.697033 1.609057 0.000000 0.487852 -0.320004 0.000000 1.089875 0.409321 0.000000 0.467964 0.429840 0.000000 0.961689 0.736955 0.000000 1.103877 0.665967 0.000000 0.984282 0.607734 0.000000 1.148796 0.718139 0.000000 0.952335 0.686586 0.000000 1.072210 0.603511 0.000000 0.710019 0.398754 0.000000 0.274157 0.239032 0.000000 0.465655 0.272597 0.000000 0.390990 -0.461136 0.000000 0.329696 -0.469040 0.000000 0.370830 -0.401174 0.000000 -0.068463 -0.948503 0.000000 -0.413783 -0.861315 0.000000 -0.153115 -1.231843 0.000000 -0.537292 -0.867522 0.000000 -0.119381 -0.576948 0.000000 -0.342818 -0.581575 0.000000 0.035359 -0.228929 0.000000 -0.162440 -0.465456 0.000000 -0.248953 -0.670734 0.000000 0.318555 2.055413 0.000000 -0.768704 1.065739 0.000000 0.392540 1.107520 0.000000 -0.631663 0.128238 0.000000 -0.194098 -0.137923 0.000000 -0.833153 0.538467 0.000000 -0.555507 1.172878 0.000000 -0.981141 1.135270 0.000000 -0.498989 0.451814 0.000000 -0.566010 2.214934 0.000000 -0.771805 1.849198 0.000000 -0.431187 1.681860 0.000000 -0.756731 1.018613 0.000000 0.301842 1.979384 0.000000 -0.649756 2.392621 0.000000 -0.666008 1.661775 0.000000 -0.548166 1.823036 0.000000 -0.812259 1.848667 0.000000 -2.526668 5.486407 0.000000 -2.286543 5.746908 0.000000 -2.598908 5.773862 0.000000 -0.690111 1.702754 0.000000 -0.703183 1.722129 0.000000 -0.738068 1.840320 0.000000 0.079402 3.311711 0.000000 -2.526120 3.574294 0.000000 -1.296316 1.498074 0.000000 -3.574147 5.360825 0.000000 -3.504745 5.436232 0.000000 -3.572284 5.429482 0.000000 -5.020591 11.620123 0.000000 -6.515838 5.517591 0.000000 -3.304110 6.882146 0.000000 -2.632158 7.124976 0.000000 -2.467008 7.199474 0.000000 -2.711493 7.374266 0.000000 -4.090840 5.474944 0.000000 -3.393979 5.543906 0.000000 -4.223095 6.138184 0.000000 1.466705 4.957777 0.000000 2.307626 6.747176 0.000000 0.675641 6.210603 0.000000 1.335215 2.429135 0.000000 2.404789 2.783491 0.000000 1.362847 3.368597 0.000000 1.117242 3.837332 0.000000 0.090780 2.859969 0.000000 1.386062 2.123799 0.000000 0.535335 2.312890 0.000000 0.518373 2.279815 0.000000 0.551477 2.266639 0.000000 0.689339 2.440983 0.000000 0.565045 2.369911 0.000000 0.535986 2.359967 0.000000 0.885341 3.122317 0.000000 0.337076 2.675418 0.000000 0.734378 2.449695 0.000000 0.469891 2.201560 0.000000 0.632481 2.392068 0.000000 0.452940 2.525465 0.000000 0.576606 1.977184 0.000000 0.478195 1.931739 0.000000 0.522409 1.950675 0.000000 0.539626 1.403334 0.000000 0.599346 1.862698 0.000000 0.305285 1.789716 0.000000 0.520928 1.949617 0.000000 0.491251 1.941526 0.000000 0.515593 1.971497 0.000000 0.398097 1.990522 0.000000 0.533055 1.965674 0.000000 0.384801 2.082891 0.000000 0.866917 0.654013 0.000000 1.270630 0.812115 0.000000 0.958062 0.840342 0.000000 1.209609 1.526264 0.000000 0.981917 1.121487 0.000000 1.307166 1.074689 0.000000 0.009787 -0.314485 0.000000 1.056583 0.589879 0.000000 -0.295724 0.698273 0.000000 0.406463 -0.370770 0.000000 0.017987 -0.158989 0.000000 0.385532 -0.315135 0.000000 0.917143 0.769044 0.000000 0.769329 0.569337 0.000000 0.890338 0.489761 0.000000 0.460207 0.230861 0.000000 0.513130 0.401539 0.000000 0.567981 0.559548 0.000000 -0.017320 0.285688 0.000000 -0.045440 0.071189 0.000000 -0.036318 0.245504 0.000000 -0.651484 0.556276 0.000000 -0.933643 0.417755 0.000000 -0.721445 0.048979 0.000000 -0.537134 -0.704815 0.000000 -0.406386 -0.841413 0.000000 -0.481558 -0.611258 0.000000 -0.359103 -0.581375 0.000000 -0.585732 -0.645889 0.000000 -0.503210 -0.879817 0.000000 -0.872665 0.459009 0.000000 -0.784386 0.629721 0.000000 -0.865002 0.601286 0.000000 -0.349111 1.648903 0.000000 -0.565062 1.289008 0.000000 -0.191990 1.323600 0.000000 -0.858174 0.895897 0.000000 -0.870941 0.899679 0.000000 -0.865746 0.918031 0.000000 -0.776552 1.332250 0.000000 -0.803455 1.324194 0.000000 -0.569257 1.174667 0.000000 -0.665789 1.634935 0.000000 -0.832438 1.489532 0.000000 -0.699219 1.461363 0.000000 -0.782020 1.327451 0.000000 -0.687729 1.457797 0.000000 -0.825436 1.488228 0.000000 -0.872005 1.511622 0.000000 -0.732989 1.678519 0.000000 -0.916564 1.686563 0.000000 -1.550800 3.781940 0.000000 -1.978642 3.357889 0.000000 -1.546739 3.390121 0.000000 -0.882554 2.336576 0.000000 -0.643069 2.378986 0.000000 -0.759032 2.508624 0.000000 -1.237990 2.524916 0.000000 -0.965600 2.536929 0.000000 -1.228812 2.879163 0.000000 -0.770624 2.397069 0.000000 -0.978605 2.043344 0.000000 -0.757942 2.142261 0.000000 -0.436423 2.603404 0.000000 -0.097172 2.790750 0.000000 -0.112204 2.923551 0.000000 -0.776148 1.919179 0.000000 -0.115798 1.962022 0.000000 -0.572791 2.509554 0.000000 -1.270315 2.311832 0.000000 -0.915520 2.593400 0.000000 -1.166706 2.514578 0.000000 -2.415828 5.222795 0.000000 -1.103168 7.379399 0.000000 -3.832843 8.196050 0.000000 6.184756 6.694669 0.000000 6.101473 6.560165 0.000000 6.234970 6.581149 0.000000 4.769935 6.557207 0.000000 5.724141 6.703974 0.000000 5.003348 7.700866 0.000000 1.236913 2.995795 0.000000 1.083760 2.859629 0.000000 1.324254 2.859563 0.000000 2.341607 4.989789 0.000000 2.885840 5.993259 0.000000 1.614494 5.997327 0.000000 0.096868 2.346711 0.000000 0.408617 2.599707 0.000000 0.108371 2.741058 0.000000 1.170565 2.329583 0.000000 0.650438 1.864233 0.000000 1.046320 1.673662 0.000000 0.617553 2.365506 0.000000 0.615931 2.347017 0.000000 0.668145 2.315577 0.000000 0.664829 2.286555 0.000000 0.669771 2.319779 0.000000 0.669669 2.314527 0.000000 0.669453 2.083742 0.000000 0.739826 2.223765 0.000000 0.598685 2.275906 0.000000 0.624748 2.477982 0.000000 0.452392 2.318566 0.000000 0.736563 2.209973 0.000000 0.468574 2.017284 0.000000 0.421630 1.952340 0.000000 0.435848 1.951291 0.000000 0.433524 1.934383 0.000000 0.430716 1.929976 0.000000 0.428952 1.948211 0.000000 0.419069 1.891257 0.000000 0.143001 1.586006 0.000000 0.430391 1.558940 0.000000 0.682803 0.809527 0.000000 0.790487 1.187304 0.000000 0.512337 1.189441 0.000000 0.408338 1.533934 0.000000 0.119852 1.599869 0.000000 0.275480 1.315905 0.000000 0.517561 1.573285 0.000000 0.805441 1.558269 0.000000 0.649873 1.839043 0.000000 0.025269 1.718213 0.000000 -0.258850 1.376006 0.000000 0.340909 1.400640 0.000000 0.164823 0.686336 0.000000 1.053650 1.588623 0.000000 0.080382 0.914846 0.000000 0.931862 1.174741 0.000000 -0.185211 0.358174 0.000000 1.583313 -0.416764 0.000000 -0.069539 0.608497 0.000000 0.130210 0.965586 0.000000 0.104039 0.859022 0.000000 -0.118284 1.011700 0.000000 -0.131786 1.179549 0.000000 -0.080878 1.061619 0.000000 0.033944 0.309612 0.000000 -0.016179 0.266261 0.000000 0.002147 0.306056 0.000000 -0.034444 0.206059 0.000000 -0.005125 0.249825 0.000000 -0.013288 0.303496 0.000000 -0.608102 0.701124 0.000000 -0.641051 0.643564 0.000000 -0.598959 0.586831 0.000000 -0.278821 -0.353611 0.000000 -0.327928 -0.398972 0.000000 -0.337715 -0.341365 0.000000 -0.639920 -0.509416 0.000000 -0.656925 -0.525485 0.000000 -0.667543 -0.606713 0.000000 -0.634366 0.648565 0.000000 -0.601889 0.697552 0.000000 -0.662346 0.631427 0.000000 -0.832465 1.263430 0.000000 -0.848899 1.267280 0.000000 -0.787952 1.305303 0.000000 -0.818026 0.956617 0.000000 -0.794309 0.912184 0.000000 -0.860281 0.883251 0.000000 -0.666304 0.943887 0.000000 -0.846086 0.895198 0.000000 -0.773462 0.904574 0.000000 -0.803313 1.445413 0.000000 -0.816456 1.482385 0.000000 -0.800818 1.536203 0.000000 -0.854607 1.243896 0.000000 -0.847635 1.278386 0.000000 -0.837093 1.283125 0.000000 -0.675850 1.374105 0.000000 -0.487422 1.623410 0.000000 -0.802836 1.645060 0.000000 -0.490128 2.015322 0.000000 -0.485121 2.004846 0.000000 -0.656072 2.012311 0.000000 -0.488004 1.975031 0.000000 -0.487163 2.013790 0.000000 -0.451995 2.019794 0.000000 -0.693790 1.949049 0.000000 -0.503621 1.949040 0.000000 -0.595994 2.107474 0.000000 -0.546028 1.958412 0.000000 -0.515142 1.961667 0.000000 -0.595478 2.019419 0.000000 -0.566035 1.880336 0.000000 -0.587446 1.865876 0.000000 -0.600469 1.749067 0.000000 -0.256910 2.252589 0.000000 -0.761440 2.147507 0.000000 -0.464230 1.718477 0.000000 -0.680047 2.367446 0.000000 -0.616850 2.370169 0.000000 -0.654047 2.410663 0.000000 -0.622193 2.106094 0.000000 -0.514467 2.151968 0.000000 -0.606511 2.257391 0.000000 -2.867857 4.511815 0.000000 -2.842740 4.555782 0.000000 -2.889904 4.552853 0.000000 -1.377798 3.276951 0.000000 -1.485848 3.233817 0.000000 -1.356217 3.133807 0.000000 -1.948527 3.750171 0.000000 -1.237891 3.786442 0.000000 -1.662491 4.210047 0.000000 -0.775276 3.286628 0.000000 -0.836917 3.172971 0.000000 -0.720791 3.167538 0.000000 -2.691480 5.153542 0.000000 -2.865991 4.829674 0.000000 -2.484206 4.818661 0.000000 8.258940 7.049351 0.000000 6.758120 5.145961 0.000000 7.988112 5.070699 0.000000 2.251666 4.519226 0.000000 2.479514 4.776374 0.000000 2.131579 4.774663 0.000000 3.808483 4.888041 0.000000 3.759490 4.793378 0.000000 3.715954 4.759303 0.000000 3.025909 4.071973 0.000000 2.897739 4.075768 0.000000 2.724980 4.003793 0.000000 2.205702 4.315786 0.000000 1.821575 3.939540 0.000000 2.246545 3.778556 0.000000 2.376400 4.544332 0.000000 2.013164 4.285350 0.000000 2.300415 4.164085 0.000000 1.313135 3.037785 0.000000 1.099468 2.886890 0.000000 1.309407 2.826059 0.000000 0.928811 2.261459 0.000000 0.964746 2.331852 0.000000 0.917009 2.342893 0.000000 1.234417 2.403223 0.000000 0.553959 2.506113 0.000000 1.021190 1.825994 0.000000 0.921823 2.383106 0.000000 1.281496 2.379863 0.000000 1.002024 2.819939 0.000000 0.598902 2.234749 0.000000 0.509821 2.095595 0.000000 0.671882 2.075404 0.000000 0.969158 2.334024 0.000000 0.665358 2.074416 0.000000 0.999099 1.999703 0.000000 0.501760 1.667636 0.000000 0.468973 1.611500 0.000000 0.534736 1.605644 0.000000 0.475694 1.883689 0.000000 0.393710 1.841144 0.000000 0.444609 1.859321 0.000000 0.396538 1.860513 0.000000 0.479497 1.909378 0.000000 0.376890 1.994963 0.000000 0.428270 1.876690 0.000000 0.257878 1.761745 0.000000 0.445498 1.668826 0.000000 0.192449 1.568538 0.000000 0.444954 1.665298 0.000000 0.192725 1.775180 0.000000 0.188974 1.359627 0.000000 0.143192 1.547356 0.000000 0.025320 1.540500 0.000000 0.416689 1.664671 0.000000 0.241428 1.644536 0.000000 0.293691 1.569578 0.000000 0.240266 1.702586 0.000000 0.128364 1.684638 0.000000 0.195657 1.617448 0.000000 0.131532 1.752524 0.000000 0.027490 1.365427 0.000000 0.443605 1.393603 0.000000 -0.044960 1.101074 0.000000 -0.009752 1.291703 0.000000 -0.152611 1.197809 0.000000 0.337035 1.575029 0.000000 0.148607 1.417434 0.000000 0.300492 1.655184 0.000000 -0.107947 1.104643 0.000000 0.289311 1.268263 0.000000 0.012929 1.387269 0.000000 0.169376 1.103064 0.000000 0.094218 1.001010 0.000000 0.148431 1.010685 0.000000 0.071040 0.515109 0.000000 0.140061 0.503101 0.000000 0.134693 0.580551 0.000000 -0.123006 0.324118 0.000000 -0.111066 0.288782 0.000000 -0.063177 0.305355 0.000000 -0.642016 0.662613 0.000000 -0.649334 0.622689 0.000000 -0.648124 0.645326 0.000000 -0.122618 0.142324 0.000000 -0.041919 0.136739 0.000000 -0.128775 0.239773 0.000000 -0.543508 -0.247429 0.000000 -0.565745 -0.123863 0.000000 -0.512411 -0.264666 0.000000 -0.630489 0.603912 0.000000 -0.683247 0.681234 0.000000 -0.685365 0.661806 0.000000 -0.823991 1.131791 0.000000 -0.792802 1.163365 0.000000 -0.839819 1.232967 0.000000 -0.683966 0.999284 0.000000 -0.705923 0.995397 0.000000 -0.718254 0.921416 0.000000 -0.747067 0.899763 0.000000 -0.737026 0.923512 0.000000 -0.740945 0.975572 0.000000 -0.775477 1.513394 0.000000 -0.784611 1.486772 0.000000 -0.744150 1.477714 0.000000 -0.794629 1.180432 0.000000 -0.816825 1.150932 0.000000 -0.874639 1.155990 0.000000 -0.746073 1.506085 0.000000 -0.769034 1.476638 0.000000 -0.708337 1.474737 0.000000 -0.522729 2.118614 0.000000 -0.568010 1.975563 0.000000 -0.468923 1.991232 0.000000 -0.393419 1.938100 0.000000 -0.408302 1.951080 0.000000 -0.403983 1.936866 0.000000 -0.754026 1.484982 0.000000 -0.812926 1.501997 0.000000 -0.803389 1.467939 0.000000 -0.551690 1.959409 0.000000 -0.451599 2.126861 0.000000 -0.619330 2.144064 0.000000 -0.357766 2.197804 0.000000 -0.669299 2.183543 0.000000 -0.599869 1.887214 0.000000 -0.820733 2.207344 0.000000 -0.671684 2.101081 0.000000 -0.756918 2.278244 0.000000 -0.983127 2.731768 0.000000 -1.391485 2.303568 0.000000 -0.951715 2.273680 0.000000 -0.683883 2.256529 0.000000 -0.516109 2.314447 0.000000 -0.747633 2.388554 0.000000 -0.660659 2.387393 0.000000 -0.867286 2.351267 0.000000 -0.735606 2.202342 0.000000 -0.563424 2.812937 0.000000 -0.423158 3.001236 0.000000 -0.655306 3.044716 0.000000 -1.032337 2.297523 0.000000 -0.797666 2.521727 0.000000 -1.099502 2.573260 0.000000 -1.285266 2.465852 0.000000 -0.870678 3.018898 0.000000 -1.508870 2.966629 0.000000 -2.647810 5.656071 0.000000 -2.510639 6.072534 0.000000 -2.939380 6.066742 0.000000 -1.724923 3.992520 0.000000 -0.838172 3.867207 0.000000 -1.260840 4.715807 0.000000 -2.765265 4.729546 0.000000 -3.228568 4.725028 0.000000 -3.007405 4.282588 0.000000 -3.871536 4.903124 0.000000 -4.247110 5.364960 0.000000 -4.248617 4.796656 0.000000 -3.681577 4.483078 0.000000 -3.360949 5.440856 0.000000 -4.096718 5.232309 0.000000 4.492422 6.261844 0.000000 3.082279 4.697537 0.000000 4.586230 4.362877 0.000000 0.955911 4.057646 0.000000 1.281243 4.347726 0.000000 1.031034 4.394202 0.000000 2.238135 4.621147 0.000000 2.421889 4.591890 0.000000 2.260512 4.935539 0.000000 2.770666 4.130722 0.000000 2.603859 4.168926 0.000000 2.707945 3.957051 0.000000 0.576559 3.735189 0.000000 0.715035 3.927725 0.000000 0.487053 4.043710 0.000000 1.010400 4.613237 0.000000 0.541996 4.194275 0.000000 1.059676 3.988454 0.000000 0.314623 3.728744 0.000000 0.343269 3.766393 0.000000 0.310103 3.760954 0.000000 0.083343 2.669448 0.000000 0.285789 2.684952 0.000000 0.140610 2.862579 0.000000 0.311746 2.923413 0.000000 0.138250 2.874996 0.000000 0.297208 2.691717 0.000000 0.617211 1.817114 0.000000 0.562244 1.800811 0.000000 0.596413 1.788189 0.000000 0.592589 1.971178 0.000000 0.450979 1.927569 0.000000 0.530563 1.855426 0.000000 0.511416 1.888109 0.000000 0.442627 1.718055 0.000000 0.599386 1.777847 0.000000 0.543298 1.561437 0.000000 0.718039 1.650588 0.000000 0.524753 1.745178 0.000000 0.655013 1.799985 0.000000 0.426633 1.690501 0.000000 0.668660 1.576383 0.000000 0.449316 1.715509 0.000000 0.339079 1.488021 0.000000 0.522875 1.546495 0.000000 0.366462 1.639054 0.000000 0.396813 1.660569 0.000000 0.362505 1.660849 0.000000 0.355881 1.653340 0.000000 0.309278 1.653978 0.000000 0.359266 1.631042 0.000000 0.489297 1.820957 0.000000 0.345310 1.817846 0.000000 0.446985 1.705972 0.000000 0.165565 1.912765 0.000000 0.230654 1.984120 0.000000 0.168882 1.984167 0.000000 0.322152 1.703111 0.000000 -0.037922 1.436021 0.000000 0.372495 1.506852 0.000000 0.046915 2.210237 0.000000 -0.113501 2.197184 0.000000 0.067864 1.895663 0.000000 0.172309 1.657031 0.000000 -0.112913 1.722432 0.000000 -0.000752 1.688617 0.000000 0.268133 1.343460 0.000000 0.237467 1.571889 0.000000 0.143619 1.582273 0.000000 0.335377 1.309234 0.000000 0.382876 1.617230 0.000000 0.230537 1.532765 0.000000 0.205985 1.414466 0.000000 0.317247 1.539334 0.000000 0.382751 1.685617 0.000000 0.184755 0.974267 0.000000 0.113642 0.979618 0.000000 0.206577 1.016034 0.000000 0.160198 0.931468 0.000000 0.158541 0.992342 0.000000 0.087247 1.052672 0.000000 -0.146294 0.235227 0.000000 -0.221905 0.234586 0.000000 -0.119542 0.144122 0.000000 -0.061060 0.515504 0.000000 0.035942 0.465373 0.000000 -0.032888 0.575209 0.000000 0.025688 0.509166 0.000000 -0.052142 0.592730 0.000000 -0.015668 0.468541 0.000000 -0.528503 0.746733 0.000000 -0.529093 0.852716 0.000000 -0.537237 0.837545 0.000000 -0.652553 0.668050 0.000000 -0.644568 0.627591 0.000000 -0.629662 0.604704 0.000000 -0.649870 0.642614 0.000000 -0.662142 0.642784 0.000000 -0.639411 0.646392 0.000000 -0.680026 0.956548 0.000000 -0.706227 0.951354 0.000000 -0.689839 1.007046 0.000000 -0.743894 0.929006 0.000000 -0.759946 0.933107 0.000000 -0.683728 0.953042 0.000000 -0.807415 1.061256 0.000000 -0.792846 1.104520 0.000000 -0.805857 1.066893 0.000000 -0.820929 1.143285 0.000000 -0.807349 1.167914 0.000000 -0.739426 1.186193 0.000000 -0.581452 1.649383 0.000000 -0.698963 1.536293 0.000000 -0.587689 1.541856 0.000000 -0.587758 1.531238 0.000000 -0.668628 1.486306 0.000000 -0.580299 1.521459 0.000000 -0.835536 1.149346 0.000000 -0.803703 1.146509 0.000000 -0.864589 1.147765 0.000000 -0.454757 1.884272 0.000000 -0.552576 1.793949 0.000000 -0.408432 1.757072 0.000000 -0.587702 1.408432 0.000000 -0.497574 1.542158 0.000000 -0.696719 1.587120 0.000000 -0.665860 1.647878 0.000000 -0.493834 1.818459 0.000000 -0.663501 1.905421 0.000000 -0.677710 2.419228 0.000000 -0.687163 2.326938 0.000000 -0.656023 2.337838 0.000000 -0.766871 2.141042 0.000000 -0.713191 2.128522 0.000000 -0.739015 2.179427 0.000000 -0.756976 2.055418 0.000000 -0.536362 1.988377 0.000000 -0.598584 2.259942 0.000000 -0.837799 2.495652 0.000000 -0.893230 2.439934 0.000000 -0.817973 2.409707 0.000000 -0.730049 2.586183 0.000000 -0.789884 2.555021 0.000000 -0.720665 2.452708 0.000000 -0.577133 1.945415 0.000000 0.013009 2.536402 0.000000 -0.762794 2.778771 0.000000 -0.783416 3.190331 0.000000 -1.052806 2.835913 0.000000 -0.698749 2.720856 0.000000 -0.916582 2.641586 0.000000 -0.337949 3.136267 0.000000 -0.879112 3.261806 0.000000 -2.295549 4.358395 0.000000 -2.030157 4.802344 0.000000 -2.554372 4.819962 0.000000 -1.154606 3.226390 0.000000 -1.267266 3.228988 0.000000 -1.222352 3.123729 0.000000 -0.916033 3.220309 0.000000 -0.716799 3.181532 0.000000 -0.804851 3.403214 0.000000 -1.833837 4.450399 0.000000 -1.999746 4.173365 0.000000 -1.717902 4.119687 0.000000 -2.439424 4.194095 0.000000 -2.321798 4.350204 0.000000 -2.436145 4.367354 0.000000 -5.756775 4.419283 0.000000 -5.744563 4.405892 0.000000 -5.741508 4.421997 0.000000 -4.243303 4.995254 0.000000 -4.174757 5.082420 0.000000 -4.263850 5.066156 0.000000 6.923419 10.368766 0.000000 4.036061 7.503951 0.000000 6.859549 7.31872