<?xml version='1.0'?>
<VTKFile type='UnstructuredGrid' version='0.1' byte_order='LittleEndian'><UnstructuredGrid>
<Piece NumberOfPoints='3000' NumberOfCells='0'>
<PointData Vectors='principal_stress_direction_1 principal_stress_direction_2 principal_stress_direction_3'>
<DataArray type='Float32' Name='principal_stress_direction_1' NumberOfComponents='3' format='ascii'>
-0.977294 0.211890 0.000000 -0.787883 0.615825 0.000000 0.348103 0.937456 0.000000 0.712515 -0.701657 0.000000 0.531785 -0.846880 0.000000 -0.523027 -0.852316 0.000000 0.517495 -0.855686 0.000000 0.968879 0.247534 0.000000 -0.781174 0.624313 0.000000 0.863536 -0.504287 0.000000 -0.554493 0.832188 0.000000 -0.725880 -0.687821 0.000000 -0.767945 -0.640516 0.000000 -0.012204 0.999926 0.000000 -0.998129 0.061145 0.000000 0.998317 0.057990 0.000000 -0.765394 0.643563 0.000000 -0.555358 0.831611 0.000000 -0.193096 0.981180 0.000000 0.624514 0.781013 0.000000 0.698313 0.715792 0.000000 -0.901458 0.432867 0.000000 0.887375 -0.461048 0.000000 0.509360 -0.860553 0.000000 0.885341 -0.464941 0.000000 -0.631637 0.775264 0.000000 -0.941499 -0.337014 0.000000 0.054287 -0.998525 0.000000 -0.543841 -0.839188 0.000000 -0.905064 0.425276 0.000000 -0.999002 0.044672 0.000000 0.998874 0.047440 0.000000 -0.206493 -0.978448 0.000000 0.714449 0.699687 0.000000 -0.408186 -0.912899 0.000000 0.800087 -0.599884 0.000000 -0.990162 -0.139926 0.000000 0.998933 -0.046176 0.000000 -0.666548 0.745462 0.000000 -0.971934 0.235254 0.000000 0.301086 0.953597 0.000000 -0.736439 0.676504 0.000000 -0.980769 0.195170 0.000000 0.727750 0.685843 0.000000 0.574392 0.818580 0.000000 -0.805199 0.593005 0.000000 0.234249 0.972177 0.000000 0.990429 0.138021 0.000000 -0.886865 -0.462029 0.000000 -0.503470 0.864013 0.000000 0.814886 -0.579621 0.000000 0.996735 -0.080746 0.000000 -0.994876 -0.101100 0.000000 0.960247 -0.279152 0.000000 0.818998 -0.573796 0.000000 0.533542 0.845774 0.000000 -0.845093 0.534619 0.000000 0.968983 0.247127 0.000000 -0.542429 0.840102 0.000000 -0.572007 0.820249 0.000000 0.288711 -0.957416 0.000000 0.462268 -0.886740 0.000000 0.146280 0.989243 0.000000 -0.983858 0.178951 0.000000 -0.834228 -0.551420 0.000000 -0.990386 0.138333 0.000000 -0.772878 -0.634555 0.000000 0.969029 -0.246947 0.000000 -0.200620 -0.979669 0.000000 0.815804 -0.578328 0.000000 -0.833195 0.552979 0.000000 -0.262542 0.964920 0.000000 -0.346659 0.937991 0.000000 -0.919686 0.392654 0.000000 -0.759027 -0.651060 0.000000 0.865448 0.500999 0.000000 -0.476623 0.879108 0.000000 -0.967781 0.251793 0.000000 0.614228 0.789128 0.000000 -0.316188 0.948697 0.000000 0.800031 0.599959 0.000000 -0.789593 0.613631 0.000000 0.955033 0.296501 0.000000 -0.161897 0.986808 0.000000 0.379244 0.925297 0.000000 -0.902367 0.430968 0.000000 -0.851020 0.525133 0.000000 -0.998323 -0.057897 0.000000 0.737269 -0.675600 0.000000 0.725538 -0.688182 0.000000 -0.676824 -0.736145 0.000000 -0.739099 0.673596 0.000000 0.833958 -0.551828 0.000000 -0.236707 -0.971581 0.000000 0.661848 -0.749638 0.000000 0.955006 -0.296587 0.000000 -0.797854 0.602851 0.000000 0.535116 0.844778 0.000000 -0.131806 0.991276 0.000000 -0.838446 0.544985 0.000000 -0.461484 -0.887148 0.000000 0.021993 -0.999758 0.000000 0.909471 -0.415768 0.000000 -0.262044 0.965056 0.000000 -0.975693 -0.219140 0.000000 -0.970990 0.239120 0.000000 0.122814 0.992430 0.000000 0.769115 0.639110 0.000000 -0.995501 -0.094751 0.000000 -0.999339 -0.036342 0.000000 -0.790290 -0.612734 0.000000 -0.817218 -0.576329 0.000000 -0.992599 -0.121436 0.000000 -0.993516 -0.113691 0.000000 -0.313994 -0.949425 0.000000 -0.664045 -0.747693 0.000000 0.732457 0.680813 0.000000 -0.947808 -0.318841 0.000000 0.704603 0.709602 0.000000 -0.977830 0.209399 0.000000 -0.081936 0.996638 0.000000 0.970383 0.241573 0.000000 -0.832563 0.553930 0.000000 0.900269 0.435333 0.000000 0.022475 0.999747 0.000000 -0.988640 0.150301 0.000000 0.859939 0.510397 0.000000 -0.882196 0.470882 0.000000 -0.555072 0.831802 0.000000 -0.695941 0.718099 0.000000 0.982229 0.187685 0.000000 -0.999732 0.023157 0.000000 -0.716001 0.698100 0.000000 -0.557116 0.830434 0.000000 -0.912623 -0.408802 0.000000 -0.820205 -0.572070 0.000000 0.775937 -0.630810 0.000000 -0.386775 0.922174 0.000000 -0.880988 0.473139 0.000000 -0.502921 0.864332 0.000000 -0.594255 -0.804276 0.000000 0.086981 -0.996210 0.000000 -0.879718 -0.475496 0.000000 -0.089602 -0.995978 0.000000 -0.826784 0.562520 0.000000 0.621519 -0.783399 0.000000 -0.142197 0.989838 0.000000 -0.011262 0.999937 0.000000 -0.090104 -0.995932 0.000000 0.697695 0.716395 0.000000 0.617430 0.786626 0.000000 0.425409 0.905001 0.000000 0.271087 0.962555 0.000000 0.510332 -0.859978 0.000000 0.170322 -0.985388 0.000000 0.859348 0.511392 0.000000 0.358439 0.933553 0.000000 -0.718875 -0.695140 0.000000 0.949887 -0.312594 0.000000 -0.231834 -0.972755 0.000000 -0.491723 -0.870752 0.000000 0.708018 0.706195 0.000000 -0.846536 0.532331 0.000000 -0.773151 0.634222 0.000000 0.601259 0.799054 0.000000 -0.151664 -0.988432 0.000000 0.813765 0.581194 0.000000 -0.969099 0.246673 0.000000 -0.917835 -0.396962 0.000000 -0.339942 0.940447 0.000000 -0.743919 0.668270 0.000000 0.886079 -0.463534 0.000000 0.638431 0.769679 0.000000 0.708485 0.705726 0.000000 -0.696219 0.717830 0.000000 -0.908010 0.418948 0.000000 0.841160 0.540786 0.000000 0.808653 0.588286 0.000000 0.974783 -0.223156 0.000000 0.079445 -0.996839 0.000000 -0.976070 0.217458 0.000000 -0.890201 0.455568 0.000000 -0.752249 0.658879 0.000000 0.950433 0.310930 0.000000 0.930430 0.366470 0.000000 -0.998621 0.052496 0.000000 -0.926859 0.375410 0.000000 -0.735924 0.677064 0.000000 -0.929660 -0.368419 0.000000 0.930313 0.366767 0.000000 -0.932582 -0.360959 0.000000 -0.735274 0.677770 0.000000 -0.875711 0.482835 0.000000 0.999687 -0.025002 0.000000 -0.860875 -0.508817 0.000000 0.857511 -0.514466 0.000000 0.998334 -0.057708 0.000000 0.997472 0.071064 0.000000 0.134341 -0.990935 0.000000 -0.134475 -0.990917 0.000000 0.680849 -0.732424 0.000000 -0.525460 -0.850819 0.000000 -0.359891 -0.932994 0.000000 0.078265 0.996933 0.000000 0.335926 -0.941888 0.000000 -0.271892 -0.962328 0.000000 0.335984 0.941868 0.000000 0.838785 0.544463 0.000000 0.127359 0.991857 0.000000 -0.701053 0.713109 0.000000 -0.516101 -0.856528 0.000000 -0.206792 0.978385 0.000000 -0.456278 -0.889837 0.000000 -0.756995 -0.653421 0.000000 -0.771947 -0.635687 0.000000 -0.529453 -0.848339 0.000000 -0.135677 -0.990753 0.000000 -0.961348 -0.275338 0.000000 0.981725 -0.190305 0.000000 0.455740 0.890113 0.000000 0.870937 0.491396 0.000000 -0.858636 -0.512586 0.000000 0.813281 0.581871 0.000000 -0.833697 0.552222 0.000000 -0.724122 0.689672 0.000000 0.971018 0.239007 0.000000 0.994670 0.103113 0.000000 0.863952 0.503575 0.000000 0.216025 0.976388 0.000000 -0.184967 -0.982745 0.000000 0.483753 0.875205 0.000000 0.669228 -0.743057 0.000000 0.668472 0.743738 0.000000 -0.936468 0.350753 0.000000 0.946322 0.323225 0.000000 0.992692 0.120672 0.000000 -0.564468 -0.825455 0.000000 0.819408 0.573210 0.000000 -0.720774 0.693170 0.000000 -0.774075 0.633094 0.000000 0.840605 0.541649 0.000000 0.700047 0.714097 0.000000 -0.877375 0.479806 0.000000 -0.761754 0.647866 0.000000 0.557894 0.829912 0.000000 0.991067 0.133367 0.000000 -0.959798 0.280692 0.000000 0.576253 0.817271 0.000000 0.525240 -0.850954 0.000000 -0.989602 0.143836 0.000000 0.403489 -0.914985 0.000000 0.592257 0.805749 0.000000 0.949970 -0.312341 0.000000 0.740475 -0.672084 0.000000 -0.949698 -0.313169 0.000000 -0.994270 -0.106899 0.000000 0.799459 -0.600720 0.000000 -0.735351 0.677686 0.000000 -0.938894 -0.344206 0.000000 -0.122124 -0.992515 0.000000 0.213749 -0.976889 0.000000 -0.161417 -0.986886 0.000000 -0.940364 -0.340169 0.000000 0.820528 -0.571606 0.000000 0.562514 0.826787 0.000000 0.167933 -0.985798 0.000000 0.906192 -0.422868 0.000000 0.909471 0.415767 0.000000 0.845785 0.533524 0.000000 0.136931 -0.990581 0.000000 -0.350435 0.936587 0.000000 0.981368 0.192138 0.000000 -0.812004 -0.583652 0.000000 -0.933049 0.359749 0.000000 -0.798397 -0.602132 0.000000 -0.979345 -0.202196 0.000000 -0.747382 0.664394 0.000000 -0.657775 -0.753215 0.000000 -0.665234 -0.746635 0.000000 0.639712 0.768614 0.000000 -0.599707 -0.800220 0.000000 -0.739822 0.672803 0.000000 0.854044 0.520202 0.000000 0.589257 0.807945 0.000000 -0.822108 -0.569331 0.000000 0.998113 0.061411 0.000000 0.329505 0.944154 0.000000 0.998802 0.048943 0.000000 -0.471467 -0.881884 0.000000 -0.712203 0.701974 0.000000 -0.523669 0.851922 0.000000 0.486039 0.873937 0.000000 -0.809095 0.587678 0.000000 0.956298 0.292392 0.000000 0.059496 0.998229 0.000000 -0.971661 0.236379 0.000000 -0.458359 0.888767 0.000000 0.445350 -0.895357 0.000000 -0.944539 0.328400 0.000000 0.506674 0.862137 0.000000 -0.498547 0.866863 0.000000 -0.466211 0.884673 0.000000 -0.652816 0.757517 0.000000 0.702420 0.711763 0.000000 0.820995 0.570936 0.000000 -0.828044 0.560663 0.000000 -0.851594 0.524202 0.000000 0.879169 0.476510 0.000000 0.957638 0.287974 0.000000 -0.155722 0.987801 0.000000 0.718997 -0.695013 0.000000 0.919511 -0.393063 0.000000 0.915625 -0.402034 0.000000 0.327188 0.944959 0.000000 -0.683237 0.730197 0.000000 0.953222 -0.302272 0.000000 0.696525 -0.717532 0.000000 0.593263 -0.805009 0.000000 -0.147897 -0.989003 0.000000 -0.193714 0.981058 0.000000 0.996251 -0.086513 0.000000 0.920461 -0.390834 0.000000 0.538287 -0.842761 0.000000 -0.204921 0.978779 0.000000 -0.009960 -0.999950 0.000000 0.470341 -0.882485 0.000000 0.292814 -0.956169 0.000000 0.307273 0.951621 0.000000 -0.854862 0.518855 0.000000 0.504593 -0.863357 0.000000 -0.852584 0.522590 0.000000 -0.599153 0.800634 0.000000 0.613876 0.789402 0.000000 0.445615 -0.895225 0.000000 -0.182355 0.983233 0.000000 -0.820879 -0.571103 0.000000 -0.727071 0.686562 0.000000 -0.246664 0.969101 0.000000 0.818663 0.574274 0.000000 0.880931 0.473245 0.000000 -0.676259 0.736664 0.000000 -0.663255 -0.748394 0.000000 -0.579885 -0.814699 0.000000 -0.741612 0.670829 0.000000 -0.695375 0.718647 0.000000 -0.943019 -0.332738 0.000000 -0.826877 -0.562383 0.000000 0.879400 0.476084 0.000000 -0.323527 -0.946219 0.000000 0.936327 0.351128 0.000000 -0.969103 -0.246657 0.000000 0.059095 -0.998252 0.000000 0.963009 0.269468 0.000000 0.455671 0.890148 0.000000 -0.735891 0.677100 0.000000 -0.359394 -0.933186 0.000000 0.947724 0.319091 0.000000 -0.829670 0.558254 0.000000 -0.754874 0.655870 0.000000 -0.997257 0.074020 0.000000 0.809897 -0.586573 0.000000 -0.295948 0.955204 0.000000 -0.700509 0.713643 0.000000 -0.670908 0.741541 0.000000 0.154516 -0.987990 0.000000 0.598003 0.801494 0.000000 -0.387377 0.921921 0.000000 -0.488365 0.872640 0.000000 0.393550 0.919303 0.000000 0.463485 0.886105 0.000000 -0.224025 0.974583 0.000000 -0.908072 0.418813 0.000000 0.724816 0.688942 0.000000 0.408886 0.912586 0.000000 -0.056981 -0.998375 0.000000 0.998567 0.053522 0.000000 0.478676 0.877992 0.000000 -0.822517 0.568740 0.000000 0.664855 0.746973 0.000000 0.758547 0.651618 0.000000 -0.915481 0.402361 0.000000 0.874326 -0.485339 0.000000 -0.893542 0.448980 0.000000 -0.913723 0.406338 0.000000 0.109433 -0.993994 0.000000 0.491134 -0.871084 0.000000 0.302080 -0.953282 0.000000 -0.558040 0.829814 0.000000 0.598640 0.801018 0.000000 0.152725 -0.988269 0.000000 0.516514 -0.856279 0.000000 0.536916 -0.843636 0.000000 -0.967573 -0.252591 0.000000 0.992754 0.120161 0.000000 0.985697 -0.168528 0.000000 -0.536976 -0.843598 0.000000 -0.675634 -0.737238 0.000000 0.698579 -0.715533 0.000000 -0.646035 0.763308 0.000000 -0.351668 0.936125 0.000000 0.990985 0.133975 0.000000 0.650897 -0.759166 0.000000 0.368953 -0.929448 0.000000 -0.703819 0.710379 0.000000 -0.993678 -0.112265 0.000000 -0.787408 0.616433 0.000000 -0.926956 -0.375169 0.000000 -0.876112 -0.482107 0.000000 -0.607328 0.794451 0.000000 -0.328818 -0.944393 0.000000 0.680222 -0.733007 0.000000 0.887795 0.460239 0.000000 -0.736741 -0.676175 0.000000 -0.894025 -0.448017 0.000000 -0.869704 0.493573 0.000000 -0.706941 0.707273 0.000000 0.631624 0.775275 0.000000 0.894379 0.447311 0.000000 0.700357 0.713793 0.000000 -0.678368 0.734722 0.000000 0.707283 -0.706930 0.000000 0.606379 0.795176 0.000000 -0.914663 0.404216 0.000000 0.124850 0.992176 0.000000 -0.865590 0.500753 0.000000 -0.782599 0.622526 0.000000 -0.990232 0.139433 0.000000 -0.682864 0.730545 0.000000 0.955860 0.293821 0.000000 0.516727 0.856150 0.000000 -0.342602 0.939481 0.000000 -0.911664 0.410937 0.000000 -0.748687 0.662924 0.000000 0.286479 0.958087 0.000000 0.564784 0.825239 0.000000 0.460297 0.887765 0.000000 -0.525952 0.850514 0.000000 -0.806154 0.591706 0.000000 0.216359 0.976314 0.000000 -0.680809 0.732461 0.000000 -0.570859 0.821048 0.000000 0.200948 0.979602 0.000000 0.999424 0.033947 0.000000 0.696790 0.717275 0.000000 -0.923629 0.383287 0.000000 -0.956428 0.291967 0.000000 -0.233479 0.972362 0.000000 -0.825663 0.564163 0.000000 0.565602 0.824679 0.000000 -0.145623 -0.989340 0.000000 -0.848733 0.528821 0.000000 -0.343927 0.938997 0.000000 0.991432 0.130626 0.000000 -0.966452 0.256848 0.000000 0.838679 -0.544626 0.000000 -0.948455 0.316913 0.000000 -0.590642 0.806934 0.000000 -0.988964 -0.148154 0.000000 -0.740564 -0.671986 0.000000 0.628654 0.777685 0.000000 -0.230550 -0.973060 0.000000 0.373853 -0.927488 0.000000 0.354763 -0.934956 0.000000 0.409320 -0.912391 0.000000 0.976466 -0.215670 0.000000 0.117954 -0.993019 0.000000 0.540807 -0.841146 0.000000 0.472720 -0.881213 0.000000 -0.054218 -0.998529 0.000000 0.820759 0.571274 0.000000 -0.329111 0.944291 0.000000 -0.015857 -0.999874 0.000000 -0.238837 -0.971060 0.000000 0.832366 -0.554226 0.000000 -0.844259 -0.535936 0.000000 -0.990859 -0.134899 0.000000 0.324079 0.946030 0.000000 0.463896 -0.885889 0.000000 -0.936193 -0.351486 0.000000 -0.773414 -0.633902 0.000000 0.736999 0.675894 0.000000 0.901846 0.432058 0.000000 0.136003 -0.990708 0.000000 -0.889110 -0.457693 0.000000 0.721139 0.692790 0.000000 0.839404 -0.543507 0.000000 0.720244 0.693721 0.000000 -0.865891 0.500233 0.000000 -0.954535 -0.298099 0.000000 -0.662233 -0.749298 0.000000 -0.867029 0.498258 0.000000 -0.665669 0.746247 0.000000 0.381779 0.924254 0.000000 0.862584 0.505915 0.000000 -0.806909 0.590676 0.000000 0.405168 0.914242 0.000000 0.992561 0.121751 0.000000 -0.710003 0.704199 0.000000 0.459908 0.887967 0.000000 -0.998654 0.051864 0.000000 -0.380181 0.924912 0.000000 -0.532546 0.846401 0.000000 0.482068 0.876134 0.000000 0.934032 0.357188 0.000000 -0.669505 0.742807 0.000000 0.285522 0.958372 0.000000 0.673175 0.739483 0.000000 -0.118929 0.992903 0.000000 -0.641546 -0.767084 0.000000 -0.948018 0.318216 0.000000 -0.736301 0.676655 0.000000 0.343381 0.939196 0.000000 -0.265743 0.964044 0.000000 -0.439103 0.898437 0.000000 -0.876281 0.481801 0.000000 0.914922 0.403632 0.000000 -0.116428 0.993199 0.000000 -0.534029 0.845466 0.000000 -0.533871 0.845566 0.000000 0.754119 0.656738 0.000000 0.881113 0.472905 0.000000 -0.750523 0.660845 0.000000 0.740343 0.672229 0.000000 -0.738716 0.674017 0.000000 0.747081 0.664733 0.000000 -0.584216 0.811598 0.000000 -0.535865 0.844304 0.000000 0.757383 0.652971 0.000000 -0.986308 0.164912 0.000000 -0.954862 0.297049 0.000000 -0.944884 0.327405 0.000000 -0.326246 0.945285 0.000000 0.458023 0.888940 0.000000 -0.820384 0.571813 0.000000 0.180538 -0.983568 0.000000 0.489806 -0.871831 0.000000 0.591272 -0.806472 0.000000 0.029636 -0.999561 0.000000 0.350799 -0.936451 0.000000 0.217827 0.975987 0.000000 0.307085 -0.951682 0.000000 -0.766239 0.642555 0.000000 0.252606 -0.967569 0.000000 0.547900 -0.836544 0.000000 0.051287 -0.998684 0.000000 -0.956420 0.291994 0.000000 -0.015171 -0.999885 0.000000 -0.728230 -0.685332 0.000000 -0.291599 -0.956541 0.000000 0.776063 0.630655 0.000000 -0.830409 0.557155 0.000000 -0.994976 0.100110 0.000000 -0.938702 0.344730 0.000000 -0.955672 -0.294434 0.000000 -0.942705 -0.333628 0.000000 0.486730 0.873553 0.000000 -0.864178 -0.503187 0.000000 -0.869920 -0.493193 0.000000 -0.916843 -0.399249 0.000000 0.631602 -0.775293 0.000000 -0.961503 -0.274794 0.000000 -0.900481 -0.434896 0.000000 -0.825392 -0.564560 0.000000 0.996684 -0.081366 0.000000 0.601864 -0.798599 0.000000 -0.659901 0.751353 0.000000 -0.567741 0.823207 0.000000 0.691010 0.722845 0.000000 0.668729 0.743506 0.000000 -0.938683 0.344782 0.000000 -0.998448 0.055685 0.000000 -0.841810 0.539773 0.000000 -0.883191 0.469014 0.000000 -0.132989 0.991118 0.000000 -0.880631 0.473803 0.000000 -0.400785 0.916172 0.000000 0.347892 0.937535 0.000000 0.942581 0.333977 0.000000 -0.192004 -0.981394 0.000000 0.344319 0.938853 0.000000 0.829077 0.559134 0.000000 -0.616049 -0.787708 0.000000 -0.950155 -0.311777 0.000000 -0.988408 -0.151823 0.000000 0.993280 0.115738 0.000000 -0.684700 0.728825 0.000000 -0.330798 -0.943702 0.000000 -0.780289 0.625419 0.000000 -0.091140 0.995838 0.000000 0.986547 0.163480 0.000000 0.541312 0.840822 0.000000 -0.967527 0.252769 0.000000 -0.784524 0.620099 0.000000 -0.385059 0.922892 0.000000 0.628865 0.777515 0.000000 0.999649 -0.026509 0.000000 -0.934685 0.355476 0.000000 -0.544963 0.838460 0.000000 0.733417 0.679779 0.000000 0.948391 -0.317103 0.000000 0.664140 0.747608 0.000000 -0.916213 0.400692 0.000000 -0.902561 0.430563 0.000000 0.640595 0.767879 0.000000 0.595640 0.803252 0.000000 -0.994675 -0.103061 0.000000 0.999615 0.027759 0.000000 -0.586204 0.810164 0.000000 -0.892737 -0.450578 0.000000 0.542405 0.840117 0.000000 0.291383 -0.956607 0.000000 0.537346 -0.843362 0.000000 -0.078625 -0.996904 0.000000 -0.575244 -0.817982 0.000000 0.260772 -0.965400 0.000000 0.800368 -0.599509 0.000000 -0.249175 -0.968458 0.000000 0.633206 -0.773983 0.000000 -0.744502 0.667621 0.000000 0.737128 -0.675753 0.000000 -0.090826 -0.995867 0.000000 -0.109857 -0.993947 0.000000 0.733326 0.679877 0.000000 0.938768 -0.344549 0.000000 -0.999264 0.038367 0.000000 0.722761 -0.691098 0.000000 0.625512 0.780215 0.000000 0.999567 0.029415 0.000000 0.037056 0.999313 0.000000 0.787835 -0.615886 0.000000 0.743288 0.668972 0.000000 0.958675 -0.284503 0.000000 -0.555332 -0.831629 0.000000 -0.487003 0.873400 0.000000 -0.578336 -0.815799 0.000000 -0.762628 -0.646837 0.000000 -0.974576 -0.224058 0.000000 -0.878943 0.476927 0.000000 0.745090 -0.666964 0.000000 -0.725347 -0.688383 0.000000 0.953883 0.300177 0.000000 0.618451 -0.785823 0.000000 0.930727 0.365714 0.000000 0.496544 0.868011 0.000000 -0.075480 0.997147 0.000000 0.904204 0.427100 0.000000 -0.449277 0.893392 0.000000 -0.996987 0.077568 0.000000 0.319736 0.947507 0.000000 -0.914543 -0.404489 0.000000 -0.402125 0.915585 0.000000 0.355020 0.934859 0.000000 -0.336842 -0.941561 0.000000 0.997468 0.071110 0.000000 -0.817492 0.575940 0.000000 -0.994988 0.099999 0.000000 0.132445 0.991190 0.000000 -0.208964 0.977923 0.000000 0.769557 0.638578 0.000000 -0.775154 0.631772 0.000000 0.178102 0.984012 0.000000 -0.036093 0.999348 0.000000 0.823952 0.566660 0.000000 -0.768136 0.640287 0.000000 0.618875 0.785489 0.000000 -0.780691 0.624918 0.000000 0.411368 0.911470 0.000000 0.990793 0.135388 0.000000 0.870396 -0.492353 0.000000 -0.088703 0.996058 0.000000 0.999316 0.036979 0.000000 0.923907 -0.382617 0.000000 -0.846166 -0.532919 0.000000 0.584355 -0.811498 0.000000 0.957082 -0.289818 0.000000 -0.803627 0.595133 0.000000 0.879096 -0.476644 0.000000 -0.486441 0.873714 0.000000 0.611856 0.790969 0.000000 0.771393 -0.636359 0.000000 -0.497087 0.867701 0.000000 0.706270 -0.707943 0.000000 -0.950316 -0.311288 0.000000 0.714480 -0.699656 0.000000 0.964427 -0.264350 0.000000 0.446073 -0.894997 0.000000 0.134904 -0.990859 0.000000 -0.979410 0.201882 0.000000 -0.210276 -0.977642 0.000000 0.446656 -0.894706 0.000000 -0.849129 0.528186 0.000000 0.652082 0.758149 0.000000 0.826795 -0.562503 0.000000 0.120843 -0.992672 0.000000 -0.708129 -0.706083 0.000000 -0.208966 -0.977923 0.000000 -0.092052 -0.995754 0.000000 -0.344758 -0.938692 0.000000 0.668600 -0.743622 0.000000 0.963306 -0.268404 0.000000 0.626732 -0.779235 0.000000 -0.940694 0.339255 0.000000 0.130884 0.991398 0.000000 -0.859263 0.511534 0.000000 -0.718246 0.695789 0.000000 0.999553 -0.029891 0.000000 -0.709622 -0.704582 0.000000 0.987576 -0.157143 0.000000 -0.161601 0.986856 0.000000 0.491812 -0.870701 0.000000 0.998524 0.054306 0.000000 -0.953410 0.301677 0.000000 -0.928514 0.371298 0.000000 0.667151 -0.744922 0.000000 -0.668276 -0.743914 0.000000 0.356768 -0.934193 0.000000 0.768239 0.640163 0.000000 0.437141 -0.899393 0.000000 -0.044468 0.999011 0.000000 0.790213 0.612832 0.000000 -0.098870 0.995100 0.000000 -0.428710 0.903442 0.000000 -0.780217 0.625509 0.000000 -0.289545 -0.957165 0.000000 0.370113 0.928987 0.000000 0.790107 0.612969 0.000000 -0.690178 0.723640 0.000000 -0.629176 0.777263 0.000000 -0.769078 -0.639155 0.000000 0.670477 0.741930 0.000000 0.988998 -0.147927 0.000000 -0.892148 0.451743 0.000000 0.372163 0.928167 0.000000 0.545692 0.837986 0.000000 -0.723385 0.690444 0.000000 -0.545457 0.838139 0.000000 0.822857 0.568248 0.000000 0.398245 0.917279 0.000000 0.988061 0.154061 0.000000 -0.901309 0.433177 0.000000 -0.435229 0.900320 0.000000 0.825549 0.564330 0.000000 0.176830 0.984241 0.000000 -0.671154 0.741318 0.000000 -0.867278 0.497824 0.000000 0.600830 0.799377 0.000000 0.562200 0.827001 0.000000 -0.262869 0.964832 0.000000 0.465323 -0.885141 0.000000 0.660238 -0.751056 0.000000 0.760230 -0.649654 0.000000 0.813643 0.581365 0.000000 -0.351233 0.936288 0.000000 0.713021 -0.701143 0.000000 0.981879 -0.189511 0.000000 -0.906042 -0.423189 0.000000 -0.496695 0.867925 0.000000 0.276333 0.961062 0.000000 0.941106 0.338112 0.000000 0.755631 0.654997 0.000000 -0.300207 0.953874 0.000000 0.891708 -0.452612 0.000000 -0.998508 -0.054596 0.000000 0.637728 -0.770262 0.000000 0.974821 0.222991 0.000000 0.653355 0.757051 0.000000 -0.750936 0.660375 0.000000 0.679548 -0.733631 0.000000 0.978728 0.205162 0.000000 -0.162227 -0.986754 0.000000 0.727922 0.685659 0.000000 -0.419014 -0.907980 0.000000 0.003678 -0.999993 0.000000 -0.183518 -0.983016 0.000000 0.498023 -0.867164 0.000000 -0.671219 -0.741259 0.000000 0.850598 0.525817 0.000000 -0.918417 -0.395613 0.000000 0.190874 -0.981615 0.000000 0.918303 -0.395878 0.000000 -0.933290 0.359123 0.000000 -0.613328 -0.789829 0.000000 -0.776994 -0.629508 0.000000 -0.670242 0.742143 0.000000 -0.041761 0.999128 0.000000 -0.285951 -0.958244 0.000000 -0.658900 -0.752231 0.000000 -0.883435 -0.468553 0.000000 -0.989882 -0.141896 0.000000 0.865977 -0.500084 0.000000 0.059950 0.998201 0.000000 -0.426061 -0.904694 0.000000 0.865532 0.500854 0.000000 0.819396 0.573229 0.000000 -0.826172 -0.563418 0.000000 -0.523856 0.851807 0.000000 -0.812806 -0.582534 0.000000 0.704623 -0.709582 0.000000 -0.975473 -0.220121 0.000000 -0.838535 0.544848 0.000000 0.769105 0.639123 0.000000 0.918194 0.396131 0.000000 -0.141502 0.989938 0.000000 0.976374 0.216088 0.000000 -0.673734 0.738974 0.000000 0.759625 0.650361 0.000000 0.169376 0.985551 0.000000 -0.980130 0.198358 0.000000 -0.502153 0.864779 0.000000 0.642123 0.766602 0.000000 0.127580 0.991828 0.000000 0.786692 0.617346 0.000000 -0.477274 0.878754 0.000000 0.411600 0.911365 0.000000 -0.999971 0.007566 0.000000 -0.122064 0.992522 0.000000 -0.984280 0.176615 0.000000 -0.466331 0.884610 0.000000 -0.817391 0.576083 0.000000 0.740653 0.671888 0.000000 0.583606 0.812037 0.000000 -0.191914 -0.981412 0.000000 0.967966 0.251080 0.000000 0.704085 0.710116 0.000000 -0.778861 0.627197 0.000000 0.997325 0.073098 0.000000 0.618625 0.785687 0.000000 -0.772482 0.635036 0.000000 0.732601 -0.680659 0.000000 -0.043858 -0.999038 0.000000 0.595978 -0.803001 0.000000 -0.820901 0.571070 0.000000 0.469800 0.882773 0.000000 -0.333984 0.942579 0.000000 -0.410900 0.911680 0.000000 0.931374 0.364065 0.000000 0.125217 0.992129 0.000000 0.888132 -0.459588 0.000000 -0.972232 0.234020 0.000000 0.823368 0.567508 0.000000 -0.587094 0.809519 0.000000 0.779824 0.625999 0.000000 0.999664 0.025916 0.000000 0.942986 -0.332833 0.000000 -0.390288 0.920693 0.000000 -0.027235 0.999629 0.000000 0.708907 -0.705302 0.000000 0.708518 0.705693 0.000000 0.984531 -0.175209 0.000000 -0.109051 0.994036 0.000000 0.891891 0.452251 0.000000 0.572305 -0.820041 0.000000 -0.985905 0.167305 0.000000 0.365535 -0.930797 0.000000 0.796344 0.604844 0.000000 0.879252 -0.476357 0.000000 0.105841 0.994383 0.000000 -0.996193 -0.087176 0.000000 0.361644 -0.932316 0.000000 0.434298 -0.900769 0.000000 0.335059 -0.942197 0.000000 -0.905357 0.424652 0.000000 -0.453622 -0.891194 0.000000 0.697298 0.716781 0.000000 -0.052300 -0.998631 0.000000 0.193450 0.981110 0.000000 -0.930815 -0.365491 0.000000 -0.822177 -0.569232 0.000000 -0.003871 -0.999993 0.000000 0.320404 0.947281 0.000000 -0.860407 -0.509608 0.000000 0.220445 0.975399 0.000000 -0.431595 -0.902068 0.000000 0.697808 -0.716285 0.000000 -0.921401 0.388612 0.000000 -0.291100 0.956692 0.000000 -0.880424 -0.474187 0.000000 0.671703 0.740821 0.000000 -0.629927 -0.776655 0.000000 0.212881 0.977078 0.000000 -0.560836 0.827927 0.000000 0.994696 0.102858 0.000000 0.148439 0.988922 0.000000 -0.866855 0.498561 0.000000 0.489983 0.871732 0.000000 -0.799714 0.600381 0.000000 0.551748 0.834011 0.000000 -0.619708 0.784833 0.000000 0.008876 0.999961 0.000000 0.258504 0.966010 0.000000 0.078261 0.996933 0.000000 -0.184016 0.982923 0.000000 -0.625607 0.780138 0.000000 0.288699 0.957420 0.000000 0.184607 0.982812 0.000000 0.733427 0.679768 0.000000 0.061057 0.998134 0.000000 -0.523191 0.852215 0.000000 -0.970997 0.239091 0.000000 -0.600535 0.799598 0.000000 0.829664 0.558262 0.000000 0.540619 0.841268 0.000000 -0.755856 0.654738 0.000000 0.613230 -0.789904 0.000000 -0.799808 0.600256 0.000000 0.764218 0.644958 0.000000 0.073317 0.997309 0.000000 -0.859500 0.511136 0.000000 -0.422246 0.906481 0.000000 -0.676251 0.736671 0.000000 0.556135 0.831092 0.000000 0.658196 0.752846 0.000000 0.615536 -0.788109 0.000000 -0.132082 -0.991239 0.000000 -0.562969 0.826478 0.000000 -0.999255 0.038585 0.000000 0.254737 0.967010 0.000000 -0.931375 0.364061 0.000000 -0.574470 0.818526 0.000000 0.402148 0.915575 0.000000 -0.741395 0.671068 0.000000 -0.416143 0.909299 0.000000 0.998838 0.048188 0.000000 -0.215138 0.976584 0.000000 0.860104 0.510118 0.000000 -0.969837 0.243752 0.000000 0.799717 0.600377 0.000000 -0.240441 0.970664 0.000000 -0.822402 0.568907 0.000000 -0.619864 0.784709 0.000000 0.850086 0.526644 0.000000 0.301254 0.953544 0.000000 -0.857634 0.514260 0.000000 -0.773128 0.634250 0.000000 0.878052 0.478566 0.000000 0.613227 0.789906 0.000000 0.096739 0.995310 0.000000 -0.924607 -0.380921 0.000000 0.657441 -0.753506 0.000000 -0.895009 0.446048 0.000000 0.248426 -0.968651 0.000000 0.635930 -0.771747 0.000000 0.457413 -0.889254 0.000000 -0.536838 0.843685 0.000000 0.823755 -0.566946 0.000000 -0.149531 0.988757 0.000000 -0.638639 -0.769506 0.000000 -0.982087 -0.188430 0.000000 -0.870872 -0.491510 0.000000 -0.761305 -0.648394 0.000000 0.990130 -0.140151 0.000000 -0.239509 -0.970894 0.000000 -0.479095 -0.877763 0.000000 -0.985745 -0.168244 0.000000 -0.872432 -0.488736 0.000000 0.912421 -0.409253 0.000000 0.968397 -0.249415 0.000000 -0.851188 0.524861 0.000000 0.962217 -0.272285 0.000000 0.995899 -0.090468 0.000000 -0.958291 -0.285794 0.000000 0.738920 -0.673793 0.000000 -0.334575 0.942369 0.000000 -0.750519 -0.660849 0.000000 -0.425459 0.904978 0.000000 0.816236 0.577719 0.000000 0.071586 0.997434 0.000000 0.213511 0.976941 0.000000 -0.287926 0.957653 0.000000 0.908533 0.417813 0.000000 -0.344384 0.938829 0.000000 -0.597466 0.801895 0.000000 0.232024 0.972710 0.000000 0.540458 0.841371 0.000000 -0.257164 0.966368 0.000000 -0.971612 0.236578 0.000000 -0.264965 0.964258 0.000000 0.367956 0.929843 0.000000 0.453872 0.891067 0.000000 -0.615248 0.788334 0.000000 0.995338 0.096452 0.000000 -0.724573 0.689198 0.000000 0.991442 0.130549 0.000000 -0.595189 0.803586 0.000000 0.883751 0.467957 0.000000 0.526566 0.850134 0.000000 -0.765155 0.643846 0.000000 0.570618 0.821215 0.000000 0.984051 0.177887 0.000000 -0.769766 0.638326 0.000000 -0.641181 0.767390 0.000000 0.808151 0.588975 0.000000 0.916385 0.400298 0.000000 0.571677 -0.820479 0.000000 -0.052040 -0.998645 0.000000 -0.593834 0.804588 0.000000 -0.524960 0.851127 0.000000 0.817346 0.576147 0.000000 0.767381 0.641192 0.000000 -0.894875 0.446316 0.000000 0.268011 0.963416 0.000000 -0.305151 0.952304 0.000000 -0.968955 0.247236 0.000000 0.425209 0.905095 0.000000 0.715085 0.699037 0.000000 -0.933552 0.358441 0.000000 -0.328279 0.944581 0.000000 -0.031756 0.999496 0.000000 -0.032619 0.999468 0.000000 0.561923 0.827190 0.000000 -0.999989 0.004714 0.000000 -0.883972 0.467540 0.000000 0.964926 0.262521 0.000000 0.470509 -0.882395 0.000000 0.436044 0.899925 0.000000 0.357591 0.933878 0.000000 -0.544989 0.838443 0.000000 0.281601 0.959532 0.000000 0.992948 0.118552 0.000000 0.444030 0.896012 0.000000 0.136670 -0.990617 0.000000 -0.779598 0.626280 0.000000 0.425743 -0.904844 0.000000 -0.034470 0.999406 0.000000 0.847452 0.530872 0.000000 0.843369 -0.537335 0.000000 0.794459 -0.607317 0.000000 0.134181 -0.990957 0.000000 0.898152 -0.439686 0.000000 0.810137 0.586241 0.000000 0.959240 0.282594 0.000000 0.886264 -0.463180 0.000000 -0.724447 0.689331 0.000000 -0.963117 -0.269082 0.000000 0.791516 0.611148 0.000000 0.200226 -0.979750 0.000000 0.933351 -0.358965 0.000000 -0.783757 -0.621068 0.000000 0.611020 -0.791615 0.000000 -0.899545 -0.436828 0.000000 0.928485 0.371369 0.000000 -0.700422 0.713729 0.000000 -0.688084 0.725631 0.000000 0.434931 0.900464 0.000000 0.996918 0.078447 0.000000 -0.239950 -0.970785 0.000000 -0.499806 0.866138 0.000000 0.750691 0.660654 0.000000 0.930611 0.366009 0.000000 -0.983661 0.180031 0.000000 0.969696 0.244313 0.000000 -0.662440 0.749115 0.000000 0.557318 0.830299 0.000000 -0.975155 0.221522 0.000000 0.673132 0.739522 0.000000 -0.299811 0.953999 0.000000 -0.670788 0.741649 0.000000 -0.986919 0.161217 0.000000 -0.010869 -0.999941 0.000000 -0.808744 0.588161 0.000000 -0.990032 0.140839 0.000000 0.684557 0.728959 0.000000 0.605119 0.796135