<?xml version='1.0'?>
<VTKFile type='UnstructuredGrid' version='0.1' byte_order='LittleEndian'><UnstructuredGrid>
<Piece NumberOfPoints='3000' NumberOfCells='0'>
<PointData Vectors='principal_stress_direction_1 principal_stress_direction_2 principal_stress_direction_3'>
<DataArray type='Float32' Name='principal_stress_direction_1' NumberOfComponents='3' format='ascii'>
-0.979657 0.200681 0.000000 0.509030 -0.860749 0.000000 0.370737 0.928738 0.000000 0.883532 -0.468370 0.000000 0.999395 -0.034781 0.000000 -0.414726 -0.909946 0.000000 0.335666 -0.941981 0.000000 0.242153 -0.970238 0.000000 0.148605 -0.988897 0.000000 -0.998673 0.051492 0.000000 -0.570420 0.821353 0.000000 0.900194 0.435489 0.000000 0.509439 0.860507 0.000000 0.883546 0.468345 0.000000 -0.998007 0.063101 0.000000 0.999909 0.013471 0.000000 -0.778811 0.627258 0.000000 -0.564421 0.825487 0.000000 -0.192379 0.981321 0.000000 0.620358 0.784319 0.000000 0.698868 0.715251 0.000000 -0.901421 0.432944 0.000000 0.978348 -0.206967 0.000000 -0.347051 0.937846 0.000000 0.781844 -0.623474 0.000000 0.771987 -0.635638 0.000000 0.827539 -0.561408 0.000000 0.171917 -0.985111 0.000000 -0.124392 -0.992233 0.000000 0.214834 -0.976651 0.000000 0.116625 -0.993176 0.000000 0.337460 -0.941340 0.000000 -0.585739 0.810500 0.000000 0.700058 -0.714086 0.000000 0.647874 0.761748 0.000000 -0.517808 -0.855497 0.000000 -0.249360 0.968411 0.000000 -0.711312 0.702876 0.000000 -0.664747 0.747068 0.000000 0.948244 0.317542 0.000000 0.282008 0.959412 0.000000 -0.738004 0.674796 0.000000 -0.987931 0.154895 0.000000 0.725888 0.687813 0.000000 0.573348 0.819312 0.000000 -0.814613 0.580005 0.000000 0.225325 0.974284 0.000000 0.975200 0.221328 0.000000 0.824656 -0.565635 0.000000 -0.896264 -0.443521 0.000000 -0.761532 0.648127 0.000000 -0.916416 -0.400226 0.000000 0.885621 -0.464409 0.000000 -0.096151 -0.995367 0.000000 -0.903302 -0.429006 0.000000 0.966343 0.257257 0.000000 -0.975062 -0.221933 0.000000 0.778810 -0.627260 0.000000 -0.335375 0.942085 0.000000 -0.749407 -0.662109 0.000000 0.288784 -0.957394 0.000000 0.019058 -0.999818 0.000000 0.122874 -0.992422 0.000000 -0.358470 -0.933541 0.000000 0.015687 -0.999877 0.000000 0.385251 -0.922812 0.000000 -0.825887 -0.563836 0.000000 -0.813801 0.581144 0.000000 0.114992 -0.993366 0.000000 0.999533 -0.030573 0.000000 -0.499064 0.866565 0.000000 -0.751641 -0.659573 0.000000 -0.891975 -0.452085 0.000000 -0.921584 0.388178 0.000000 -0.657497 -0.753458 0.000000 0.867246 0.497880 0.000000 -0.469843 -0.882750 0.000000 -0.967582 0.252556 0.000000 0.618793 0.785554 0.000000 -0.320119 0.947377 0.000000 0.815785 0.578355 0.000000 -0.788793 0.614659 0.000000 0.952272 0.305251 0.000000 -0.163616 0.986524 0.000000 0.370653 0.928771 0.000000 -0.346084 0.938204 0.000000 -0.849373 0.527793 0.000000 0.999899 -0.014213 0.000000 -0.090225 -0.995921 0.000000 0.518650 -0.854987 0.000000 -0.814433 -0.580258 0.000000 -0.930046 -0.367444 0.000000 0.962407 0.271610 0.000000 0.631573 -0.775317 0.000000 0.901634 -0.432499 0.000000 0.854269 -0.519831 0.000000 0.707067 -0.707146 0.000000 -0.810417 -0.585854 0.000000 0.445490 0.895287 0.000000 0.656493 -0.754332 0.000000 0.194790 -0.980845 0.000000 -0.180902 -0.983501 0.000000 -0.333885 -0.942614 0.000000 -0.033134 -0.999451 0.000000 0.147870 -0.989007 0.000000 -0.005228 -0.999986 0.000000 -0.599917 -0.800062 0.000000 0.937735 -0.347353 0.000000 -0.968890 -0.247490 0.000000 -0.896816 -0.442403 0.000000 0.190852 -0.981619 0.000000 -0.947958 -0.318394 0.000000 -0.925467 -0.378829 0.000000 -0.920859 -0.389896 0.000000 -0.922542 -0.385896 0.000000 -0.717241 -0.696825 0.000000 -0.935370 -0.353672 0.000000 -0.914583 -0.404399 0.000000 -0.726473 -0.687195 0.000000 -0.920134 -0.391603 0.000000 -0.110367 0.993891 0.000000 -0.658788 0.752329 0.000000 -0.832990 0.553288 0.000000 -0.876630 -0.481165 0.000000 0.028353 0.999598 0.000000 -0.964454 -0.264252 0.000000 0.686170 0.727441 0.000000 -0.872760 0.488149 0.000000 -0.551566 0.834131 0.000000 -0.698508 0.715603 0.000000 0.982102 0.188349 0.000000 -0.999709 0.024106 0.000000 -0.716772 0.697308 0.000000 0.356808 -0.934178 0.000000 -0.733108 -0.680112 0.000000 -0.688763 -0.724987 0.000000 -0.999730 -0.023222 0.000000 -0.017781 0.999842 0.000000 -0.827911 0.560860 0.000000 0.783005 -0.622015 0.000000 0.910895 -0.412637 0.000000 0.757008 -0.653406 0.000000 -0.658992 -0.752150 0.000000 0.132321 -0.991207 0.000000 0.859110 -0.511791 0.000000 0.957226 -0.289342 0.000000 0.315538 -0.948913 0.000000 -0.032253 -0.999480 0.000000 0.129563 -0.991571 0.000000 0.732287 -0.680996 0.000000 0.859331 -0.511420 0.000000 0.278802 -0.960349 0.000000 -0.999089 -0.042684 0.000000 0.073946 -0.997262 0.000000 -0.574452 -0.818538 0.000000 0.219932 -0.975515 0.000000 -0.714071 -0.700073 0.000000 -0.065647 -0.997843 0.000000 0.993056 -0.117645 0.000000 -0.098612 -0.995126 0.000000 -0.597442 -0.801912 0.000000 0.708491 0.705719 0.000000 -0.673690 -0.739014 0.000000 -0.772109 0.635490 0.000000 -0.803575 -0.595203 0.000000 -0.878193 -0.478306 0.000000 0.814407 0.580294 0.000000 -0.094486 -0.995526 0.000000 -0.990898 -0.134618 0.000000 -0.837536 -0.546383 0.000000 -0.996830 -0.079565 0.000000 -0.587846 -0.808973 0.000000 0.644370 0.764714 0.000000 0.707178 0.707035 0.000000 -0.999495 -0.031773 0.000000 -0.907531 0.419985 0.000000 0.840271 0.542167 0.000000 0.805101 0.593138 0.000000 -0.986154 0.165834 0.000000 0.930942 0.365167 0.000000 -0.978074 0.208256 0.000000 -0.882979 0.469412 0.000000 -0.749837 0.661623 0.000000 0.951056 0.309020 0.000000 0.930802 0.365524 0.000000 -0.793731 -0.608268 0.000000 0.645415 0.763832 0.000000 0.830490 -0.557033 0.000000 0.995572 -0.094001 0.000000 -0.922615 -0.385723 0.000000 0.993502 -0.113811 0.000000 -0.508253 0.861208 0.000000 0.964114 -0.265490 0.000000 0.999187 -0.040313 0.000000 -0.988161 -0.153423 0.000000 -0.993589 -0.113056 0.000000 0.744606 -0.667504 0.000000 0.766549 -0.642185 0.000000 0.594672 -0.803969 0.000000 -0.114423 -0.993432 0.000000 0.802023 -0.597293 0.000000 -0.965872 -0.259019 0.000000 -0.187998 -0.982169 0.000000 0.631850 -0.775091 0.000000 0.528602 -0.848870 0.000000 -0.335560 -0.942019 0.000000 0.087194 -0.996191 0.000000 -0.292274 -0.956335 0.000000 -0.347324 -0.937745 0.000000 0.400611 -0.916248 0.000000 0.297764 -0.954640 0.000000 0.497266 -0.867598 0.000000 -0.804338 -0.594171 0.000000 0.298419 -0.954435 0.000000 -0.900127 -0.435627 0.000000 -0.556588 -0.830788 0.000000 -0.699667 -0.714469 0.000000 -0.289909 -0.957054 0.000000 0.977711 -0.209954 0.000000 0.456854 0.889542 0.000000 -0.497302 -0.867577 0.000000 -0.883093 -0.469198 0.000000 0.200503 0.979693 0.000000 -0.630716 -0.776014 0.000000 0.969579 -0.244779 0.000000 -0.090747 -0.995874 0.000000 -0.968967 -0.247189 0.000000 -0.911460 -0.411388 0.000000 -0.520670 -0.853758 0.000000 -0.855570 0.517687 0.000000 -0.978868 -0.204491 0.000000 -0.755559 0.655081 0.000000 0.672784 0.739839 0.000000 -0.937789 0.347204 0.000000 -0.735730 -0.677275 0.000000 0.993433 0.114415 0.000000 -0.915507 0.402302 0.000000 0.825887 0.563836 0.000000 -0.721252 0.692672 0.000000 -0.755134 0.655571 0.000000 0.171888 -0.985117 0.000000 0.702897 0.711291 0.000000 -0.876618 0.481187 0.000000 -0.760521 0.649313 0.000000 0.560209 0.828351 0.000000 0.991593 0.129398 0.000000 0.608964 -0.793198 0.000000 0.572713 0.819756 0.000000 0.767362 -0.641214 0.000000 -0.936632 0.350316 0.000000 0.815355 -0.578961 0.000000 -0.633776 -0.773517 0.000000 0.844289 0.535888 0.000000 0.812891 -0.582416 0.000000 0.998568 -0.053504 0.000000 0.712995 -0.701170 0.000000 0.973855 -0.227172 0.000000 0.673091 -0.739560 0.000000 0.741809 -0.670612 0.000000 0.999979 -0.006457 0.000000 0.094804 -0.995496 0.000000 0.314273 -0.949333 0.000000 0.533936 -0.845525 0.000000 -0.189805 -0.981822 0.000000 0.403242 -0.915093 0.000000 0.248323 -0.968677 0.000000 0.994399 -0.105696 0.000000 -0.383868 -0.923388 0.000000 0.457208 -0.889360 0.000000 0.398292 -0.917259 0.000000 0.425896 -0.904772 0.000000 -0.396849 -0.917884 0.000000 -0.432494 0.901637 0.000000 0.382936 -0.923775 0.000000 -0.968441 -0.249243 0.000000 -0.379267 0.925287 0.000000 -0.532723 -0.846290 0.000000 -0.716980 -0.697094 0.000000 -0.259409 -0.965768 0.000000 -0.203140 -0.979150 0.000000 0.059577 -0.998224 0.000000 -0.006002 -0.999982 0.000000 -0.912365 -0.409379 0.000000 0.589855 0.807510 0.000000 -0.718030 -0.696012 0.000000 -0.645745 -0.763553 0.000000 0.892505 0.451037 0.000000 0.998127 -0.061173 0.000000 -0.886761 -0.462229 0.000000 0.712393 -0.701780 0.000000 0.975030 0.222075 0.000000 -0.956064 -0.293158 0.000000 -0.805510 0.592582 0.000000 0.955490 0.295022 0.000000 0.058676 0.998277 0.000000 -0.970523 0.241009 0.000000 -0.457004 0.889465 0.000000 -0.959150 0.282899 0.000000 -0.944222 0.329309 0.000000 0.516799 0.856107 0.000000 0.849864 -0.527002 0.000000 -0.458421 0.888735 0.000000 0.766121 -0.642697 0.000000 0.707335 0.706879 0.000000 0.826016 0.563646 0.000000 -0.824745 0.565505 0.000000 0.453438 -0.891288 0.000000 0.862314 -0.506373 0.000000 0.958611 0.284718 0.000000 -0.221565 -0.975146 0.000000 -0.795974 -0.605331 0.000000 -0.905633 0.424062 0.000000 -0.803953 -0.594693 0.000000 0.991717 -0.128438 0.000000 0.988634 -0.150341 0.000000 0.874495 -0.485034 0.000000 0.628924 -0.777467 0.000000 0.263325 -0.964707 0.000000 0.624549 -0.780985 0.000000 -0.391852 -0.920028 0.000000 -0.409566 -0.912280 0.000000 0.993728 -0.111826 0.000000 0.679350 -0.733815 0.000000 0.226238 -0.974072 0.000000 0.991957 -0.126574 0.000000 0.753587 -0.657348 0.000000 0.121820 -0.992552 0.000000 0.926007 -0.377505 0.000000 0.072124 -0.997396 0.000000 0.221149 -0.975240 0.000000 -0.071135 -0.997467 0.000000 0.562966 -0.826480 0.000000 0.310298 -0.950639 0.000000 -0.141781 -0.989898 0.000000 0.367126 -0.930171 0.000000 -0.269141 -0.963101 0.000000 -0.875863 -0.482560 0.000000 -0.996281 0.086160 0.000000 -0.761199 -0.648519 0.000000 -0.939259 -0.343210 0.000000 -0.374133 -0.927375 0.000000 -0.822525 -0.568729 0.000000 -0.522326 -0.852746 0.000000 -0.266750 -0.963766 0.000000 -0.136552 -0.990633 0.000000 -0.806638 -0.591046 0.000000 -0.699224 -0.714903 0.000000 -0.178913 -0.983865 0.000000 -0.338478 -0.940974 0.000000 -0.621343 -0.783539 0.000000 -0.510629 -0.859801 0.000000 -0.728197 -0.685368 0.000000 0.962747 0.270403 0.000000 -0.707271 -0.706942 0.000000 -0.996281 -0.086164 0.000000 0.435557 0.900161 0.000000 0.947614 0.319419 0.000000 0.428710 0.903442 0.000000 -0.752832 0.658213 0.000000 -0.997322 0.073130 0.000000 -0.337551 0.941307 0.000000 0.140904 0.990023 0.000000 -0.699789 0.714350 0.000000 -0.663595 0.748092 0.000000 -0.679912 0.733294 0.000000 0.603365 0.797465 0.000000 -0.371208 0.928550 0.000000 -0.490768 0.871291 0.000000 0.386824 0.922153 0.000000 0.462376 0.886684 0.000000 -0.213230 0.977002 0.000000 -0.908532 0.417816 0.000000 0.677237 0.735765 0.000000 0.419752 0.907639 0.000000 -0.978521 0.206148 0.000000 0.998907 0.046738 0.000000 0.483656 0.875258 0.000000 -0.819836 0.572598 0.000000 0.666200 0.745773 0.000000 0.757069 0.653335 0.000000 0.925251 -0.379355 0.000000 -0.512192 0.858871 0.000000 -0.785237 0.619195 0.000000 0.839879 0.542773 0.000000 0.635712 -0.771926 0.000000 -0.698780 -0.715336 0.000000 -0.782971 -0.622059 0.000000 0.664613 -0.747188 0.000000 0.306984 -0.951715 0.000000 0.907488 -0.420079 0.000000 0.657237 -0.753684 0.000000 0.462765 -0.886481 0.000000 0.106465 -0.994316 0.000000 -0.786717 -0.617314 0.000000 0.355872 0.934535 0.000000 0.170363 -0.985381 0.000000 0.388842 -0.921305 0.000000 0.385098 -0.922876 0.000000 0.147912 -0.989000 0.000000 0.006879 -0.999976 0.000000 -0.055198 -0.998475 0.000000 -0.010096 -0.999949 0.000000 0.030064 -0.999548 0.000000 -0.354419 0.935087 0.000000 0.938654 -0.344861 0.000000 0.052167 -0.998638 0.000000 -0.793610 -0.608427 0.000000 -0.940186 -0.340662 0.000000 -0.993113 -0.117163 0.000000 0.053230 -0.998582 0.000000 -0.858932 -0.512090 0.000000 -0.080716 -0.996737 0.000000 -0.885080 -0.465439 0.000000 -0.832731 -0.553678 0.000000 -0.057919 -0.998321 0.000000 -0.342383 -0.939560 0.000000 -0.796396 -0.604775 0.000000 -0.767029 -0.641613 0.000000 -0.889366 -0.457196 0.000000 -0.854184 -0.519971 0.000000 -0.737727 0.675099 0.000000 -0.930339 -0.366701 0.000000 -0.454340 -0.890828 0.000000 0.313294 0.949656 0.000000 -0.394140 0.919050 0.000000 -0.785405 0.618983 0.000000 0.532099 0.846682 0.000000 -0.685758 0.727830 0.000000 0.954825 0.297167 0.000000 0.517759 0.855526 0.000000 -0.350714 0.936483 0.000000 -0.912903 0.408176 0.000000 -0.749055 0.662508 0.000000 0.298707 0.954345 0.000000 0.567325 0.823494 0.000000 0.453494 0.891260 0.000000 -0.526543 0.850149 0.000000 -0.780709 0.624895 0.000000 0.226174 0.974087 0.000000 -0.701565 0.712605 0.000000 -0.568555 0.822645 0.000000 0.201647 0.979458 0.000000 0.999527 0.030760 0.000000 0.704816 0.709390 0.000000 0.288788 0.957393 0.000000 -0.953622 0.301006 0.000000 -0.456906 0.889515 0.000000 -0.824738 0.565515 0.000000 0.570011 0.821637 0.000000 0.681720 0.731613 0.000000 -0.847932 0.530106 0.000000 -0.193828 0.981036 0.000000 -0.962058 -0.272845 0.000000 0.999103 0.042353 0.000000 -0.504200 -0.863587 0.000000 -0.925762 0.378108 0.000000 0.544640 -0.838670 0.000000 0.999594 0.028502 0.000000 0.245063 0.969507 0.000000 -0.511684 -0.859174 0.000000 0.647289 -0.762244 0.000000 0.734518 -0.678590 0.000000 0.679354 -0.733811 0.000000 0.611460 -0.791275 0.000000 -0.100384 -0.994949 0.000000 0.067067 -0.997748 0.000000 0.625751 -0.780023 0.000000 0.546954 -0.837163 0.000000 0.232072 -0.972698 0.000000 0.073080 -0.997326 0.000000 0.450153 -0.892952 0.000000 -0.489270 -0.872132 0.000000 0.029546 -0.999563 0.000000 0.417229 -0.908801 0.000000 -0.704963 0.709244 0.000000 -0.006394 0.999980 0.000000 -0.456732 -0.889604 0.000000 0.246181 -0.969224 0.000000 -0.943611 -0.331056 0.000000 -0.557615 0.830100 0.000000 0.932797 -0.360401 0.000000 -0.835704 -0.549180 0.000000 -0.871260 -0.490821 0.000000 -0.895280 -0.445503 0.000000 -0.999949 -0.010130 0.000000 -0.670040 -0.742325 0.000000 -0.972862 -0.231385 0.000000 -0.636588 -0.771204 0.000000 0.999934 -0.011500 0.000000 -0.894126 -0.447815 0.000000 0.441440 0.897291 0.000000 -0.741978 -0.670424 0.000000 -0.884039 -0.467414 0.000000 0.862933 0.505318 0.000000 -0.036135 -0.999347 0.000000 0.404448 0.914561 0.000000 0.992347 0.123484 0.000000 0.495807 0.868433 0.000000 -0.917113 0.398628 0.000000 -0.998900 0.046901 0.000000 -0.384628 0.923072 0.000000 -0.526233 0.850340 0.000000 0.475341 0.879802 0.000000 0.931387 0.364030 0.000000 -0.669311 0.742982 0.000000 0.293348 0.956006 0.000000 0.669008 0.743256 0.000000 -0.124436 0.992228 0.000000 0.876259 0.481841 0.000000 -0.936071 0.351811 0.000000 -0.727239 0.686385 0.000000 0.346599 0.938013 0.000000 -0.247983 0.968764 0.000000 -0.425231 0.905085 0.000000 -0.873542 0.486749 0.000000 0.917976 0.396637 0.000000 -0.111725 0.993739 0.000000 -0.529232 0.848477 0.000000 -0.526000 0.850484 0.000000 0.754346 0.656478 0.000000 0.939998 0.341179 0.000000 -0.758707 0.651432 0.000000 0.744064 0.668108 0.000000 -0.737260 0.675609 0.000000 0.747456 0.664312 0.000000 -0.582977 0.812488 0.000000 -0.534802 0.844978 0.000000 0.758105 0.652133 0.000000 0.990367 0.138465 0.000000 0.978643 0.205566 0.000000 -0.995195 0.097911 0.000000 -0.637831 0.770177 0.000000 0.456423 0.889763 0.000000 -0.455474 -0.890249 0.000000 0.182076 -0.983284 0.000000 0.205669 -0.978622 0.000000 -0.249038 -0.968494 0.000000 0.228402 -0.973567 0.000000 0.214755 -0.976668 0.000000 0.426093 -0.904679 0.000000 0.202027 -0.979380 0.000000 0.104000 -0.994577 0.000000 0.780784 -0.624801 0.000000 0.272413 -0.962180 0.000000 -0.133370 -0.991066 0.000000 0.625666 -0.780091 0.000000 0.510287 -0.860004 0.000000 -0.717281 -0.696784 0.000000 -0.448502 -0.893782 0.000000 0.847176 -0.531313 0.000000 -0.880329 0.474363 0.000000 -0.968897 -0.247466 0.000000 -0.679351 -0.733813 0.000000 -0.293249 0.956036 0.000000 -0.653992 -0.756501 0.000000 0.916133 -0.400873 0.000000 -0.694042 -0.719934 0.000000 -0.701388 -0.712780 0.000000 -0.970013 -0.243053 0.000000 -0.731943 -0.681365 0.000000 -0.859089 -0.511827 0.000000 -0.822147 -0.569276 0.000000 -0.770632 0.637280 0.000000 -0.638610 0.769530 0.000000 -0.923116 -0.384522 0.000000 -0.659226 0.751945 0.000000 -0.128749 -0.991677 0.000000 0.427359 -0.904082 0.000000 0.670892 0.741555 0.000000 -0.938951 0.344050 0.000000 -0.973438 0.228951 0.000000 -0.988090 0.153879 0.000000 -0.884934 0.465716 0.000000 -0.135088 0.990834 0.000000 -0.034998 -0.999387 0.000000 0.592649 -0.805461 0.000000 0.346836 0.937926 0.000000 0.940325 0.340277 0.000000 0.284035 0.958814 0.000000 0.338725 0.940885 0.000000 0.833041 0.553211 0.000000 0.969877 0.243596 0.000000 0.705670 0.708540 0.000000 -0.833126 0.553084 0.000000 0.995036 0.099519 0.000000 -0.678984 0.734153 0.000000 -0.943059 0.332626 0.000000 -0.775203 0.631712 0.000000 -0.290745 0.956801 0.000000 -1.000000 0.000701 0.000000 0.548760 0.835980 0.000000 -0.967885 0.251393 0.000000 -0.783190 0.621782 0.000000 -0.385247 0.922813 0.000000 0.632583 0.774492 0.000000 0.940102 0.340893 0.000000 0.089794 0.995960 0.000000 0.997757 -0.066935 0.000000 0.794586 0.607151 0.000000 -0.583471 0.812134 0.000000 0.665766 0.746160 0.000000 -0.914777 0.403960 0.000000 -0.574752 0.818328 0.000000 0.818140 0.575019 0.000000 0.592873 -0.805296 0.000000 -0.831501 0.555523 0.000000 -0.855273 -0.518177 0.000000 -0.979352 -0.202161 0.000000 0.547365 -0.836894 0.000000 0.983969 -0.178338 0.000000 0.403822 -0.914838 0.000000 0.141517 -0.989936 0.000000 -0.021331 -0.999772 0.000000 0.969631 -0.244572 0.000000 0.458387 -0.888753 0.000000 0.791964 -0.610568 0.000000 -0.100664 -0.994920 0.000000 0.725818 -0.687887 0.000000 0.421593 -0.906785 0.000000 0.489209 -0.872167 0.000000 -0.138791 -0.990322 0.000000 -0.343449 -0.939171 0.000000 0.029611 -0.999562 0.000000 -0.762988 -0.646413 0.000000 -0.684322 -0.729180 0.000000 0.113982 -0.993483 0.000000 -0.644445 -0.764650 0.000000 -0.907418 -0.420229 0.000000 -0.875740 -0.482784 0.000000 0.988928 -0.148398 0.000000 0.627055 -0.778975 0.000000 -0.878939 -0.476935 0.000000 0.907181 -0.420740 0.000000 -0.996877 -0.078973 0.000000 -0.709623 -0.704582 0.000000 -0.869324 -0.494243 0.000000 -0.863610 -0.504160 0.000000 -0.955731 -0.294243 0.000000 -0.020401 -0.999792 0.000000 0.995266 -0.097190 0.000000 -0.972818 -0.231573 0.000000 -0.891174 -0.453661 0.000000 -0.959564 0.281490 0.000000 0.499207 0.866483 0.000000 -0.072387 0.997377 0.000000 -0.155440 -0.987845 0.000000 -0.451283 0.892381 0.000000 -0.997124 0.075782 0.000000 0.325075 0.945688 0.000000 -0.321281 -0.946984 0.000000 -0.840978 0.541070 0.000000 0.368566 0.929602 0.000000 0.944823 0.327580 0.000000 0.997618 0.068974 0.000000 -0.813192 0.581995 0.000000 -0.994669 0.103120 0.000000 0.139026 0.990289 0.000000 -0.222140 0.975015 0.000000 0.783257 0.621698 0.000000 -0.768781 0.639512 0.000000 0.204516 0.978863 0.000000 -0.034862 0.999392 0.000000 -0.388114 0.921612 0.000000 -0.767681 0.640832 0.000000 0.623901 0.781503 0.000000 -0.775678 0.631129 0.000000 0.413055 0.910706 0.000000 0.980828 -0.194875 0.000000 0.828018 -0.560701 0.000000 -0.640259 -0.768159 0.000000 0.953527 -0.301308 0.000000 0.967282 -0.253704 0.000000 -0.200531 0.979687 0.000000 0.941570 0.336817 0.000000 -0.974192 -0.225721 0.000000 -0.697371 -0.716710 0.000000 -0.889378 0.457173 0.000000 -0.951528 0.307564 0.000000 0.614188 0.789160 0.000000 0.681235 0.732065 0.000000 -0.564445 0.825470 0.000000 0.842917 -0.538044 0.000000 -0.425335 0.905036 0.000000 0.649698 -0.760192 0.000000 -0.998827 -0.048419 0.000000 0.604133 -0.796884 0.000000 -0.494998 0.868894 0.000000 0.391902 -0.920007 0.000000 0.170034 -0.985438 0.000000 0.145499 -0.989358 0.000000 0.983192 0.182576 0.000000 0.193479 -0.981104 0.000000 -0.246034 -0.969261 0.000000 0.050984 -0.998699 0.000000 0.000506 -1.000000 0.000000 0.468185 -0.883630 0.000000 0.084896 -0.996390 0.000000 -0.354251 -0.935151 0.000000 0.857172 -0.515030 0.000000 -0.740225 -0.672359 0.000000 0.667522 -0.744590 0.000000 -0.386650 -0.922226 0.000000 0.873793 -0.486297 0.000000 -0.741338 -0.671131 0.000000 -0.987569 -0.157184 0.000000 -0.432523 -0.901623 0.000000 -0.918391 -0.395674 0.000000 -0.976183 -0.216947 0.000000 0.936983 -0.349374 0.000000 0.979186 -0.202964 0.000000 -0.510900 -0.859640 0.000000 -0.976994 -0.213265 0.000000 0.997351 -0.072741 0.000000 -0.876472 -0.481454 0.000000 -0.774055 -0.633118 0.000000 0.728055 -0.685519 0.000000 -0.331075 -0.943604 0.000000 -0.722940 -0.690910 0.000000 -0.041864 0.999123 0.000000 -0.493153 -0.869943 0.000000 0.999169 0.040770 0.000000 -0.425704 0.904862 0.000000 -0.776172 0.630521 0.000000 0.783580 0.621291 0.000000 -0.677748 -0.735294 0.000000 0.796089 0.605180 0.000000 -0.632437 -0.774612 0.000000 -0.995233 0.097523 0.000000 -0.662802 0.748795 0.000000 0.676576 0.736373 0.000000 0.831892 0.554938 0.000000 -0.881863 0.471506 0.000000 0.314499 0.949258 0.000000 0.550461 0.834861 0.000000 -0.716063 0.698036 0.000000 -0.527998 0.849246 0.000000 0.835190 0.549962 0.000000 0.453824 0.891091 0.000000 0.987831 0.155531 0.000000 -0.897484 0.441047 0.000000 -0.437731 0.899106 0.000000 0.819172 0.573548 0.000000 0.163797 0.986494 0.000000 -0.670330 0.742063 0.000000 0.862595 -0.505896 0.000000 0.602553 0.798079 0.000000 0.560922 0.827868 0.000000 -0.173759 -0.984788 0.000000 -0.567851 0.823132 0.000000 -0.669634 0.742691 0.000000 -0.969974 0.243208 0.000000 -0.672264 0.740311 0.000000 -0.279723 0.960081 0.000000 -0.911718 0.410817 0.000000 -0.812567 -0.582868 0.000000 0.928112 0.372301 0.000000 -0.493354 0.869828 0.000000 0.272024 0.962291 0.000000 0.940305 0.340333 0.000000 0.954663 0.297688 0.000000 -0.302486 0.953154 0.000000 0.993358 -0.115060 0.000000 0.837169 0.546944 0.000000 0.411048 0.911614 0.000000 -0.791843 0.610725 0.000000 0.983525 -0.180770 0.000000 -0.813723 -0.581252 0.000000 -0.870713 -0.491792 0.000000 -0.039914 -0.999203 0.000000 0.895732 -0.444595 0.000000 -0.999389 -0.034952 0.000000 -0.247846 -0.968799 0.000000 0.350044 -0.936733 0.000000 0.565799 -0.824543 0.000000 -0.433568 -0.901121 0.000000 0.196300 -0.980544 0.000000 0.537042 -0.843556 0.000000 -0.857044 -0.515244 0.000000 0.734437 -0.678677 0.000000 -0.546882 -0.837210 0.000000 -0.985817 0.167826 0.000000 -0.607913 -0.794003 0.000000 -0.591334 -0.806427 0.000000 -0.725032 -0.688716 0.000000 0.890966 -0.454071 0.000000 -0.681690 -0.731641 0.000000 -0.947532 -0.319662 0.000000 -0.795736 -0.605644 0.000000 -0.544073 -0.839038 0.000000 -0.969570 -0.244815 0.000000 -0.895568 -0.444925 0.000000 -0.848954 -0.528467 0.000000 -0.890164 -0.455640 0.000000 -0.904270 -0.426961 0.000000 0.987630 -0.156799 0.000000 -0.953113 -0.302615 0.000000 -0.855931 -0.517090 0.000000 0.835259 -0.549857 0.000000 -0.985719 -0.168396 0.000000 -0.834324 0.551274 0.000000 0.898610 -0.438749 0.000000 -0.841285 -0.540591 0.000000 0.986775 0.162097 0.000000 0.978067 0.208289 0.000000 -0.668594 0.743627 0.000000 -0.693794 -0.720174 0.000000 0.173325 0.984865 0.000000 -0.979105 0.203357 0.000000 -0.502738 0.864439 0.000000 0.641993 0.766711 0.000000 0.128495 0.991710 0.000000 0.788928 0.614486 0.000000 -0.489030 0.872267 0.000000 0.412452 0.910979 0.000000 -0.999898 0.014315 0.000000 -0.103122 0.994669 0.000000 -0.995661 0.093050 0.000000 -0.470095 0.882616 0.000000 -0.821538 0.570153 0.000000 0.736672 0.676250 0.000000 0.577109 0.816667 0.000000 -0.998481 0.055091 0.000000 0.967455 0.253044 0.000000 0.702637 0.711549 0.000000 -0.780240 0.625480 0.000000 0.996729 0.080814 0.000000 0.612495 0.790474 0.000000 -0.771173 0.636625 0.000000 0.920870 -0.389870 0.000000 0.523181 0.852222 0.000000 0.971006 -0.239054 0.000000 0.446785 -0.894641 0.000000 0.469373 0.883000 0.000000 -0.333836 0.942631 0.000000 -0.254276 0.967132 0.000000 -0.762030 -0.647542 0.000000 0.455825 -0.890070 0.000000 0.598612 -0.801039 0.000000 0.972885 -0.231289 0.000000 -0.982870 -0.184300 0.000000 -0.945294 -0.326220 0.000000 0.702526 -0.711658 0.000000 0.583003 -0.812470 0.000000 -0.833029 -0.553229 0.000000 0.722481 -0.691391 0.000000 -0.028307 0.999599 0.000000 -0.360726 -0.932672 0.000000 0.708630 0.705580 0.000000 0.890085 0.455795 0.000000 0.723224 -0.690613 0.000000 0.950947 0.309354 0.000000 0.771848 -0.635807 0.000000 -0.943504 -0.331361 0.000000 -0.181259 0.983435 0.000000 0.797192 0.603726 0.000000 0.999191 0.040227 0.000000 0.237286 -0.971440 0.000000 0.775345 -0.631538 0.000000 -0.495236 -0.868759 0.000000 -0.200636 0.979666 0.000000 0.073527 -0.997293 0.000000 0.424293 0.905525 0.000000 0.412321 -0.911039 0.000000 -0.714682 -0.699449 0.000000 -0.943239 -0.332114 0.000000 -0.542789 -0.839869 0.000000 -0.464596 -0.885523 0.000000 0.882676 -0.469981 0.000000 -0.126595 -0.991955 0.000000 -0.735457 -0.677572 0.000000 -0.494522 0.869165 0.000000 -0.860058 -0.510196 0.000000 0.534290 -0.845301 0.000000 -0.846721 0.532036 0.000000 0.889697 -0.456551 0.000000 -0.243279 0.969956 0.000000 0.987519 -0.157500 0.000000 0.508583 0.861013 0.000000 -0.488221 -0.872720 0.000000 0.704742 -0.709464 0.000000 -0.559456 0.828860 0.000000 -0.999290 -0.037672 0.000000 0.151204 0.988503 0.000000 -0.999654 0.026316 0.000000 0.489346 0.872089 0.000000 -0.800074 0.599901 0.000000 0.552803 0.833312 0.000000 -0.618889 0.785478 0.000000 0.015754 0.999876 0.000000 0.260743 0.965408 0.000000 0.083993 0.996466 0.000000 -0.175422 0.984493 0.000000 -0.607240 0.794518 0.000000 0.296250 0.955110 0.000000 0.169399 0.985548 0.000000 0.753150 0.657849 0.000000 0.085570 0.996332 0.000000 -0.535420 0.844586 0.000000 -0.982358 0.187012 0.000000 -0.607088 0.794634 0.000000 0.822374 0.568948 0.000000 0.531473 0.847075 0.000000 -0.761173 0.648549 0.000000 -0.972431 0.233189 0.000000 -0.800727 0.599029 0.000000 0.762212 0.647328 0.000000 -0.087864 0.996132 0.000000 -0.862888 0.505395 0.000000 -0.426249 0.904606 0.000000 -0.675452 0.737404 0.000000 0.557882 0.829921 0.000000 0.659288 0.751891 0.000000 0.807478 -0.589898 0.000000 0.947771 -0.318953 0.000000 -0.797448 -0.603388 0.000000 -0.999217 0.039572 0.000000 0.255930 0.966695 0.000000 -0.931068 0.364846 0.000000 0.573529 -0.819185 0.000000 0.785141 0.619317 0.000000 -0.707373 -0.706840 0.000000 -0.416987 0.908912 0.000000 0.292868 0.956153 0.000000 -0.874147 -0.485662 0.000000 0.859617 0.510940 0.000000 -0.969727 0.244191 0.000000 0.799117 0.601175 0.000000 -0.241789 0.970329 0.000000 -0.998430 0.056022 0.000000 0.896178 -0.443695 0.000000 0.850672 0.525696 0.000000 0.302529 0.953140 0.000000 -0.856811 0.515631 0.000000 -0.938826 0.344391 0.000000 0.878386 0.477952 0.000000 0.614347 0.789036 0.000000 0.635207 0.772342 0.000000 0.099897 0.994998 0.000000 0.233336 0.972396 0.000000 -0.894500 0.447067 0.000000 0.809277 0.587427 0.000000 0.805117 -0.593115 0.000000 0.596454 -0.802648 0.000000 0.530591 -0.847628 0.000000 -0.976015 -0.217705 0.000000 -0.821107 -0.570775 0.000000 -0.386161 0.922431 0.000000 -0.304684 0.952453 0.000000 -0.016542 -0.999863 0.000000 0.765311 -0.643660 0.000000 -0.811317 -0.584606 0.000000 -0.993979 -0.109568 0.000000 -0.582643 -0.812728 0.000000 -0.770424 -0.637532 0.000000 0.779441 -0.626476 0.000000 -0.438542 0.898710 0.000000 0.985013 -0.172479 0.000000 0.572549 0.819871 0.000000 -0.235455 0.971885 0.000000 0.941125 -0.338059 0.000000 -0.906157 -0.422941 0.000000 -0.039831 0.999206 0.000000 -0.331727 0.943375 0.000000 -0.789628 0.613586 0.000000 -0.424810 0.905283 0.000000 0.816086 0.577930 0.000000 0.064285 0.997932 0.000000 0.210381 0.977620 0.000000 -0.289389 0.957212 0.000000 0.908624 0.417616 0.000000 -0.345708 0.938342 0.000000 -0.596349 0.802725 0.000000 0.232927 0.972494 0.000000 0.509946 0.860206 0.000000 -0.256044 0.966665 0.000000 -0.972778 0.231740 0.000000 -0.238280 0.971197 0.000000 0.382397 0.923998 0.000000 0.485218 0.874393 0.000000 -0.607174 0.794569 0.000000 0.989914 0.141672 0.000000 -0.732505 0.680761 0.000000 0.987291 0.158923 0.000000 -0.601684 0.798735 0.000000 0.190534 -0.981681 0.000000 0.532251 0.846587 0.000000 -0.766939 0.641720 0.000000 0.431719 -0.902008 0.000000 -0.971344 0.237677 0.000000 -0.769223 0.638981 0.000000 -0.639316 0.768944 0.000000 0.806647 0.591033 0.000000 0.915834 0.401557 0.000000 0.773331 -0.634003 0.000000 -0.999990 -0.004553 0.000000 0.577904 -0.816105 0.000000 -0.524412 0.851465 0.000000 0.817145 0.576432 0.000000 -0.263514 -0.964656 0.000000 -0.823724 0.566991 0.000000 -0.435154 -0.900356 0.000000 0.905577 -0.424181 0.000000 -0.972947 0.231028 0.000000 -0.926428 -0.376471 0.000000 0.574920 0.818210 0.000000 0.975807 -0.218635 0.000000 -0.279878 -0.960035 0.000000 -0.032934 0.999458 0.000000 -0.035170 0.999381 0.000000 0.561677 0.827357 0.000000 -0.999997 0.002320 0.000000 -0.883830 0.467807 0.000000 0.964285 0.264867 0.000000 -0.575165 0.818038 0.000000 0.436122 0.899888 0.000000 0.798309 0.602248 0.000000 -0.547051 0.837100 0.000000 0.280334 0.959902 0.000000 0.992903 0.118925 0.000000 -0.781742 -0.623602 0.000000 -0.776327 0.630330 0.000000 -0.802940 0.596059 0.000000 -0.808051 -0.589112 0.000000 0.140056 -0.990144 0.000000 -0.530677 0.847574 0.000000 0.805910 -0.592039 0.000000 0.762054 -0.647514 0.000000 -0.900202 -0.435473 0.000000 0.744238 0.667914 0.000000 -0.820509 -0.571633 0.000000 -0.966208 0.257764 0.000000 -0.949252 -0.314517 0.000000 -0.479833 -0.877360 0.000000 0.949666 -0.313264 0.000000 -0.601879 -0.798587 0.000000 -0.298428 -0.954432 0.000000 0.106888 -0.994271 0.000000 -0.703149 -0.711042 0.000000 -0.673405 0.739274 0.000000 0.593883 0.804551 0.000000 0.965175 -0.261604 0.000000 -0.681810 0.731529 0.000000 0.442503 -0.896767 0.000000 -0.423475 -0.905908 0.000000 0.986404 0.164338 0.000000 0.935342 0.353746 0.000000 -0.504696 0.863297 0.000000 0.759654 0.650327 0.000000 0.817292 0.576224 0.000000 -0.983964 0.178366 0.000000 -0.043247 -0.999064 0.000000 -0.659714 0.751517 0.000000 0.560999 0.827817 0.000000 -0.974146 0.225919 0.000000 0.676315 0.736613 0.000000 -0.365153 0.930947 0.000000 -0.6607