<?xml version='1.0'?>
<VTKFile type='PolyData' version='0.1' byte_order='LittleEndian'><PolyData>
<Piece NumberOfPoints='9000' NumberOfVerts='0' NumberOfLines='0' NumberOfStrips='0' NumberOfPolys='3000'>
<Points>
<DataArray type='Float32' NumberOfComponents='3' format='ascii'>
10.726110 48.979032 0.000000 7.706783 49.584854 0.000000 8.852000 47.471067 0.000000 4.602694 49.918390 0.000000 6.503721 47.183444 0.000000 7.661064 49.558176 0.000000 8.876639 47.383182 0.000000 7.672007 49.463682 0.000000 6.536434 47.078459 0.000000 6.540912 47.086196 0.000000 4.632174 49.815753 0.000000 4.581438 47.239190 0.000000 1.642035 49.941566 0.000000 2.562859 47.074622 0.000000 4.616057 49.793123 0.000000 4.578371 47.218276 0.000000 4.617525 49.795019 0.000000 2.564246 47.076476 0.000000 2.524602 47.063024 0.000000 1.642238 49.942213 0.000000 -0.330362 47.668747 0.000000 -1.643087 49.940010 0.000000 -0.332624 47.666138 0.000000 1.640111 49.939760 0.000000 -0.337653 47.670290 0.000000 -1.646019 49.945242 0.000000 -2.911222 47.862798 0.000000 -4.624492 49.844450 0.000000 -2.975141 47.896682 0.000000 -1.648348 49.940548 0.000000 -2.969664 47.890444 0.000000 -4.637542 49.822364 0.000000 -4.568655 47.852788 0.000000 -7.693570 49.535422 0.000000 -6.094904 47.813983 0.000000 -4.636065 49.902871 0.000000 -4.569244 47.853871 0.000000 -4.646746 49.823127 0.000000 -6.133590 47.754081 0.000000 -6.108535 47.719848 0.000000 -7.688354 49.458599 0.000000 -8.465925 47.219909 0.000000 -10.721865 49.008780 0.000000 -8.434356 47.332387 0.000000 -7.696659 49.584531 0.000000 19.721674 46.397876 0.000000 16.797985 47.365040 0.000000 16.500500 45.694113 0.000000 16.726896 47.351519 0.000000 13.814773 48.352968 0.000000 16.307760 45.706885 0.000000 16.272119 45.570834 0.000000 13.751218 48.190335 0.000000 13.935696 45.122024 0.000000 8.864747 47.406571 0.000000 10.975195 45.600029 0.000000 10.733733 48.920881 0.000000 10.729761 48.974597 0.000000 11.004672 45.656346 0.000000 13.716443 48.224202 0.000000 13.908266 45.094356 0.000000 13.685089 48.160095 0.000000 10.972680 45.592913 0.000000 11.002962 45.566892 0.000000 8.873966 47.351537 0.000000 8.407295 45.772960 0.000000 6.526329 47.076904 0.000000 8.406686 45.772598 0.000000 8.870189 47.352108 0.000000 8.406000 45.770925 0.000000 6.526496 47.076460 0.000000 6.951202 44.951354 0.000000 2.553246 47.076095 0.000000 4.559560 44.906295 0.000000 4.568472 47.199164 0.000000 6.955313 44.930577 0.000000 6.524798 47.054448 0.000000 4.558666 44.922685 0.000000 4.568487 47.218210 0.000000 4.561135 44.925361 0.000000 6.527262 47.057118 0.000000 4.529351 44.925708 0.000000 2.529755 47.101865 0.000000 2.379335 44.969849 0.000000 2.375025 44.938330 0.000000 2.527581 47.070295 0.000000 0.308770 45.085757 0.000000 -0.335192 47.669830 0.000000 0.300044 45.078981 0.000000 2.519495 47.063036 0.000000 0.298188 45.081382 0.000000 -0.335852 47.672670 0.000000 -1.919924 46.130242 0.000000 -2.911778 47.862839 0.000000 -1.922342 46.127886 0.000000 -0.338241 47.670339 0.000000 -6.084618 47.726833 0.000000 -4.462249 45.925587 0.000000 -4.521246 47.840867 0.000000 -1.934313 46.148884 0.000000 -2.923828 47.883884 0.000000 -4.449395 45.898736 0.000000 -4.515588 47.837636 0.000000 -4.461967 45.922216 0.000000 -2.917099 47.892326 0.000000 -8.438532 47.208806 0.000000 -6.795105 46.113307 0.000000 -6.084562 47.724462 0.000000 -4.461949 45.923314 0.000000 -6.084641 47.724235 0.000000 -6.795137 46.113050 0.000000 -6.783482 46.105567 0.000000 -8.431948 47.193482 0.000000 -8.337109 45.354895 0.000000 -13.749072 48.240511 0.000000 -11.040100 45.767253 0.000000 -10.765176 49.001907 0.000000 -8.337625 45.355594 0.000000 -8.432027 47.194203 0.000000 -11.005413 45.653241 0.000000 -10.683647 48.929212 0.000000 -11.045751 45.703154 0.000000 -8.441913 47.192083 0.000000 -11.080597 45.752605 0.000000 -13.778855 48.237547 0.000000 -13.539219 45.821124 0.000000 -19.623807 46.370950 0.000000 -15.918179 45.365942 0.000000 -16.703565 47.348471 0.000000 -16.692621 47.357949 0.000000 -15.818136 45.413076 0.000000 -13.756895 48.287935 0.000000 -13.544758 45.819198 0.000000 -13.780728 48.235981 0.000000 -15.845368 45.363563 0.000000 22.327458 44.895997 0.000000 19.553128 46.232578 0.000000 20.364330 43.682737 0.000000 20.383538 43.575374 0.000000 19.556999 46.120286 0.000000 18.152952 43.654135 0.000000 16.262382 45.610764 0.000000 18.107576 43.639160 0.000000 19.523239 46.098662 0.000000 18.128058 43.617673 0.000000 16.252482 45.560397 0.000000 15.620773 43.194896 0.000000 13.921437 45.086894 0.000000 15.619492 43.196358 0.000000 16.252767 45.561440 0.000000 10.990438 45.587814 0.000000 13.043835 42.927386 0.000000 13.925034 45.083465 0.000000 15.623141 43.190792 0.000000 13.925050 45.081298 0.000000 13.044722 42.924865 0.000000 13.057805 42.909286 0.000000 10.997238 45.564163 0.000000 10.612428 42.493391 0.000000 6.949836 44.950198 0.000000 8.671712 43.898793 0.000000 8.407397 45.764813 0.000000 10.612145 42.491112 0.000000 10.996948 45.561881 0.000000 8.669894 43.901913 0.000000 8.406293 45.772256 0.000000 8.674624 43.906805 0.000000 11.001966 45.566379 0.000000 4.556839 44.922156 0.000000 6.595174 43.027277 0.000000 6.953447 44.930591 0.000000 8.682485 43.892392 0.000000 6.953748 44.932305 0.000000 6.595761 43.028948 0.000000 6.563230 43.034515 0.000000 4.529582 44.934546 0.000000 4.644998 42.387949 0.000000 0.310794 45.085512 0.000000 2.137529 42.701820 0.000000 2.377004 44.938206 0.000000 4.640788 42.378457 0.000000 4.530039 44.925192 0.000000 2.142234 42.733241 0.000000 2.380319 44.969867 0.000000 2.142493 42.733474 0.000000 4.530304 44.925435 0.000000 2.133667 42.706126 0.000000 0.307431 45.089931 0.000000 -0.438765 42.926511 0.000000 -4.448299 45.897968 0.000000 -2.232579 44.167587 0.000000 -1.933295 46.149000 0.000000 -0.445692 42.918893 0.000000 0.301780 45.081965 0.000000 -2.216438 44.149623 0.000000 -1.919025 46.129822 0.000000 -2.219135 44.148625 0.000000 0.299077 45.080962 0.000000 -2.232978 44.167899 0.000000 -4.448696 45.898280 0.000000 -4.499254 43.110333 0.000000 -8.333425 45.355813 0.000000 -6.618055 44.329583 0.000000 -6.779057 46.104948 0.000000 -4.498868 43.131285 0.000000 -4.448382 45.919224 0.000000 -6.615485 44.317480 0.000000 -6.778582 46.100171 0.000000 -6.615017 44.325047 0.000000 -4.444497 45.922046 0.000000 -10.998862 45.645110 0.000000 -8.836582 43.487160 0.000000 -8.330335 45.354202 0.000000 -6.612565 44.326110 0.000000 -8.330474 45.348060 0.000000 -8.838148 43.481408 0.000000 -8.835775 43.486353 0.000000 -10.998358 45.643997 0.000000 -11.155321 42.574822 0.000000 -15.789190 45.318061 0.000000 -13.423893 43.862926 0.000000 -13.484839 45.754383 0.000000 -11.157051 42.581461 0.000000 -10.997990 45.650514 0.000000 -13.377981 43.829657 0.000000 -13.478022 45.743297 0.000000 -13.390547 43.852881 0.000000 -11.019138 45.684919 0.000000 -13.374653 43.832617 0.000000 -15.755209 45.262655 0.000000 -15.579858 42.469879 0.000000 -19.503299 46.109392 0.000000 -18.040596 43.385636 0.000000 -15.753267 45.285395 0.000000 -15.585982 42.474119 0.000000 -15.758070 45.267099 0.000000 -18.051738 43.375000 0.000000 -18.061889 43.386779 0.000000 -19.511652 46.117445 0.000000 -20.316764 43.578055 0.000000 -22.353761 44.903402 0.000000 -20.317932 43.708623 0.000000 -19.595455 46.272747 0.000000 27.778719 41.855890 0.000000 25.159235 43.475044 0.000000 25.569700 40.876752 0.000000 25.536049 40.878717 0.000000 25.150380 43.480805 0.000000 22.423323 41.531892 0.000000 20.381632 43.589733 0.000000 22.321177 41.403589 0.000000 22.325738 44.833245 0.000000 25.065345 43.437298 0.000000 22.366540 44.920474 0.000000 22.336459 41.490947 0.000000 18.122423 43.628674 0.000000 19.552811 41.920024 0.000000 20.353786 43.576347 0.000000 22.318378 41.398601 0.000000 20.364198 43.571672 0.000000 19.570404 41.911895 0.000000 15.623075 43.193549 0.000000 17.472927 41.377920 0.000000 18.130080 43.617939 0.000000 19.560158 41.909921 0.000000 18.130425 43.619118 0.000000 17.473301 41.379091 0.000000 17.475959 41.374745 0.000000 15.626209 43.190477 0.000000 14.912101 40.592538 0.000000 13.048169 42.921564 0.000000 14.912135 40.592702 0.000000 15.626255 43.190639 0.000000 14.921864 40.580598 0.000000 13.055096 42.907210 0.000000 12.235166 40.559523 0.000000 10.609961 42.491857 0.000000 12.235524 40.560531 0.000000 13.055273 42.908279 0.000000 12.242037 40.552810 0.000000 10.615684 42.483303 0.000000 10.227411 40.410456 0.000000 6.580329 43.022630 0.000000 8.484345 41.570799 0.000000 8.668549 43.882471 0.000000 10.227077 40.408675 0.000000 10.615350 42.481512 0.000000 8.483491 41.579713 0.000000 8.675111 43.892182 0.000000 8.486314 41.580908 0.000000 10.618195 42.482714 0.000000 8.466009 41.581210 0.000000 6.563681 43.035373 0.000000 6.153135 40.469541 0.000000 4.644788 42.387878 0.000000 6.152984 40.468543 0.000000 6.563020 43.034445 0.000000 6.152960 40.468599 0.000000 4.643846 42.387116 0.000000 3.825633 40.756083 0.000000 2.140544 42.733487 0.000000 3.816945 40.749687 0.000000 4.639066 42.378700 0.000000 3.816993 40.749632 0.000000 2.140527 42.733509 0.000000 1.973720 39.863076 0.000000 1.966861 39.838399 0.000000 2.136253 42.708750 0.000000 -0.108010 40.882189 0.000000 -0.439300 42.926560 0.000000 -0.111215 40.879585 0.000000 2.133096 42.706176 0.000000 -4.491260 43.111320 0.000000 -2.333619 41.809323 0.000000 -2.226012 44.171183 0.000000 -0.113075 40.877704 0.000000 -0.439336 42.924966 0.000000 -2.321380 41.794574 0.000000 -2.223402 44.154063 0.000000 -2.334438 41.792476 0.000000 -0.452671 42.923279 0.000000 -2.337116 41.811298 0.000000 -4.494699 43.113384 0.000000 -4.563839 40.557916 0.000000 -8.838933 43.476822 0.000000 -6.788875 41.958130 0.000000 -6.614747 44.325314 0.000000 -6.615433 44.315910 0.000000 -6.789570 41.948712 0.000000 -4.498154 43.130924 0.000000 -4.567097 40.575025 0.000000 -4.498991 43.130514 0.000000 -6.789584 41.946570 0.000000 -11.156205 42.569802 0.000000 -9.136962 41.037692 0.000000 -8.837789 43.484225 0.000000 -6.788126 41.957610 0.000000 -
[...]
<PointData Vectors='Velocity Force Displacement'>
<DataArray type='Float32' Name='Velocity' NumberOfComponents='3' format='ascii'>
1.033421 5.026617 0.000000 1.311018 6.410162 0.000000 0.342423 5.885385 0.000000 -0.769050 -8.150423 0.000000 8.381506 -1.751474 0.000000 0.425893 2.136818 0.000000 1.261539 2.981195 0.000000 0.328487 2.440741 0.000000 1.397432 1.931944 0.000000 1.177761 2.036951 0.000000 -0.173762 1.093351 0.000000 1.101474 1.068086 0.000000 -0.100036 -1.135217 0.000000 0.604866 -0.934806 0.000000 -0.049791 -0.474251 0.000000 0.784283 -0.158631 0.000000 0.186558 -0.141199 0.000000 0.826550 -0.644904 0.000000 -0.279191 -1.015209 0.000000 -0.214846 -0.986360 0.000000 -0.272736 -1.005138 0.000000 -0.237850 -1.000209 0.000000 -0.255292 -0.986281 0.000000 -0.225124 -0.997275 0.000000 -0.229923 -1.274030 0.000000 -0.138923 -1.165111 0.000000 -0.215474 -1.135422 0.000000 -0.279558 2.089146 0.000000 -2.402397 0.288480 0.000000 -0.190957 -1.133187 0.000000 -2.421239 0.272000 0.000000 -0.828684 1.636637 0.000000 -2.451216 1.581912 0.000000 -1.018584 4.667844 0.000000 -1.231143 4.470443 0.000000 -0.973211 4.290309 0.000000 -2.459539 1.526034 0.000000 -0.919698 1.586650 0.000000 -2.537581 2.749259 0.000000 -1.619488 1.148025 0.000000 -0.519689 2.147311 0.000000 -1.935725 2.639135 0.000000 -1.019401 6.100622 0.000000 -0.888072 6.279826 0.000000 -1.064506 6.337617 0.000000 8.353121 12.674733 0.000000 6.629476 7.464629 0.000000 9.607131 6.934432 0.000000 3.902947 7.009551 0.000000 4.748789 9.469270 0.000000 2.513811 7.363557 0.000000 1.299044 2.437297 0.000000 2.580314 3.670355 0.000000 1.079511 3.580112 0.000000 1.220873 3.826547 0.000000 0.587124 3.086159 0.000000 1.752093 3.170906 0.000000 1.594405 4.800616 0.000000 1.290702 4.775475 0.000000 1.525722 4.527197 0.000000 0.505181 2.708413 0.000000 0.343447 2.696639 0.000000 0.478882 2.553553 0.000000 1.097191 1.933318 0.000000 1.146056 1.991616 0.000000 1.102831 2.004394 0.000000 0.952007 1.896139 0.000000 1.001060 1.966856 0.000000 0.941658 1.984288 0.000000 1.236836 2.053814 0.000000 1.057463 1.795579 0.000000 1.349439 1.853931 0.000000 0.769324 -0.691950 0.000000 1.255881 -0.260815 0.000000 0.777786 -0.280027 0.000000 1.548022 0.654553 0.000000 0.841521 0.524652 0.000000 1.536973 -0.105433 0.000000 0.777883 -0.104461 0.000000 1.534598 -0.106235 0.000000 0.841742 0.527102 0.000000 0.084397 0.462757 0.000000 -0.124608 0.273079 0.000000 0.082866 0.245543 0.000000 -0.072235 -1.100723 0.000000 -0.212123 -1.091563 0.000000 -0.093252 -1.219106 0.000000 -0.273375 -1.003993 0.000000 -0.452664 -1.091619 0.000000 -0.334478 -1.212380 0.000000 -0.365040 -1.334341 0.000000 -0.212217 -1.262552 0.000000 -0.300601 -1.181344 0.000000 -0.216857 -1.136168 0.000000 -0.311303 -1.195130 0.000000 -0.226863 -1.266520 0.000000 -1.010164 1.726736 0.000000 -1.616686 1.180442 0.000000 -0.971764 1.200310 0.000000 -0.889530 -0.179218 0.000000 -0.774588 -0.137358 0.000000 -0.897808 -0.059727 0.000000 -0.409077 1.309457 0.000000 -1.604641 1.269199 0.000000 -0.391839 0.313686 0.000000 -1.245920 2.756303 0.000000 -1.730394 2.000997 0.000000 -0.953769 1.685709 0.000000 -1.619953 1.037902 0.000000 -0.983839 1.645703 0.000000 -1.563964 1.908055 0.000000 -0.849000 1.374167 0.000000 -0.621306 1.719303 0.000000 -1.006111 1.699375 0.000000 -2.525764 5.485964 0.000000 -2.287127 5.747343 0.000000 -2.599228 5.773870 0.000000 -0.987411 1.713697 0.000000 -0.531239 1.737120 0.000000 -0.913565 2.375594 0.000000 0.072710 3.307806 0.000000 -2.501067 3.596670 0.000000 -1.313168 1.519320 0.000000 -3.547696 5.301149 0.000000 -3.317443 5.551168 0.000000 -3.541347 5.528964 0.000000 -4.931928 11.620856 0.000000 -6.576418 5.556858 0.000000 -3.332194 6.842146 0.000000 -2.912859 7.425686 0.000000 -3.123664 7.330900 0.000000 -2.812057 7.107482 0.000000 -3.623242 5.558295 0.000000 -3.499305 5.570397 0.000000 -3.646608 5.676275 0.000000 1.456940 4.957984 0.000000 2.315055 6.739201 0.000000 0.677977 6.218370 0.000000 1.284340 2.694166 0.000000 2.218192 2.995514 0.000000 1.313152 3.511451 0.000000 1.265523 3.724618 0.000000 0.425110 2.938081 0.000000 1.473502 2.334646 0.000000 0.715949 2.562383 0.000000 0.777823 2.623221 0.000000 0.702223 2.643614 0.000000 0.730106 2.840336 0.000000 0.554625 2.683202 0.000000 0.775644 2.623773 0.000000 0.650799 2.610975 0.000000 0.773723 2.705468 0.000000 0.674687 2.746267 0.000000 0.723273 2.516231 0.000000 0.773065 2.561435 0.000000 0.717938 2.584613 0.000000 1.541856 1.656714 0.000000 1.620482 1.724133 0.000000 1.510549 1.746873 0.000000 1.507695 1.797763 0.000000 1.381619 1.561920 0.000000 1.629992 1.586366 0.000000 1.519871 1.746691 0.000000 1.622887 1.733717 0.000000 1.563948 1.813040 0.000000 1.592531 1.781233 0.000000 1.555568 1.777636 0.000000 1.588670 1.737173 0.000000 1.551915 0.063188 0.000000 2.006082 0.557259 0.000000 1.548437 0.646896 0.000000 1.916207 1.234848 0.000000 1.542215 0.649692 0.000000 2.235576 0.513716 0.000000 0.366808 0.951776 0.000000 0.180319 0.725754 0.000000 0.438849 0.739078 0.000000 -0.096521 -1.218957 0.000000 0.062552 -1.109236 0.000000 -0.071471 -1.101690 0.000000 0.355502 0.451355 0.000000 0.220709 0.463343 0.000000 0.341460 0.353978 0.000000 0.081714 0.253077 0.000000 0.192290 0.217991 0.000000 0.084670 0.337783 0.000000 -0.048253 -1.192685 0.000000 -0.095503 -1.216863 0.000000 -0.037583 -1.285269 0.000000 -0.901045 -0.039267 0.000000 -0.996731 -0.156191 0.000000 -0.890688 -0.164317 0.000000 -0.584758 -1.267093 0.000000 -0.429746 -1.301231 0.000000 -0.495384 -1.137615 0.000000 -0.358117 -1.153276 0.000000 -0.493417 -1.139043 0.000000 -0.426958 -1.301724 0.000000 -1.004217 -0.165185 0.000000 -0.866860 0.002014 0.000000 -1.091536 0.005580 0.000000 -0.980275 2.095607 0.000000 -1.356213 1.467619 0.000000 -0.705938 1.526413 0.000000 -1.069376 0.856459 0.000000 -0.946652 0.864329 0.000000 -1.009157 0.956789 0.000000 -0.677463 1.341928 0.000000 -0.894225 1.321955 0.000000 -0.700787 1.043303 0.000000 -1.007373 1.860320 0.000000 -0.835776 2.025728 0.000000 -0.983736 2.067179 0.000000 -1.038401 1.148141 0.000000 -1.048523 1.133757 0.000000 -1.051078 1.131465 0.000000 -0.845056 2.010333 0.000000 -1.001443 1.829822 0.000000 -0.779290 1.801171 0.000000 -1.624367 3.820253 0.000000 -1.914421 3.348773 0.000000 -1.537393 3.360923 0.000000 -0.753389 2.031285 0.000000 -1.000055 2.024683 0.000000 -0.838007 1.880800 0.000000 -1.237726 2.524713 0.000000 -0.965362 2.537316 0.000000 -1.229314 2.878980 0.000000 -0.787495 2.634759 0.000000 -0.764882 2.663835 0.000000 -0.800724 2.661825 0.000000 -0.383608 2.776396 0.000000 -0.297215 2.822790 0.000000 -0.357472 2.895341 0.000000 -0.565101 2.440876 0.000000 -0.558466 2.441280 0.000000 -0.562982 2.446713 0.000000 -0.964171 2.639882 0.000000 -0.511253 2.880346 0.000000 -0.932446 3.013884 0.000000 -2.388401 5.223573 0.000000 -1.110507 7.400958 0.000000 -3.852931 8.173713 0.000000 6.184693 6.694678 0.000000 6.101513 6.560110 0.000000 6.234993 6.581196 0.000000 4.767577 6.559370 0.000000 5.722557 6.700917 0.000000 5.007291 7.701759 0.000000 1.237008 2.995772 0.000000 1.083712 2.859767 0.000000 1.324206 2.859448 0.000000 2.337882 4.989458 0.000000 2.887679 5.989886 0.000000 1.616380 6.001031 0.000000 0.846501 2.509254 0.000000 0.916239 2.567037 0.000000 0.849315 2.599279 0.000000 1.039992 2.934382 0.000000 0.727158 2.653021 0.000000 0.966115 2.538734 0.000000 0.918129 2.573038 0.000000 0.925071 2.575037 0.000000 0.936396 2.570368 0.000000 0.898902 2.484034 0.000000 0.919921 2.505617 0.000000 0.890493 2.517635 0.000000 1.022386 2.421578 0.000000 1.039935 2.445471 0.000000 1.012198 2.454054 0.000000 1.012193 2.457511 0.000000 1.012862 2.457681 0.000000 1.039343 2.448418 0.000000 1.663574 1.629564 0.000000 1.687548 1.648981 0.000000 1.646445 1.664346 0.000000 1.601015 1.632501 0.000000 1.643361 1.664662 0.000000 1.591752 1.683641 0.000000 2.002966 1.216983 0.000000 1.932144 1.198469 0.000000 1.984813 1.191598 0.000000 1.451346 0.178698 0.000000 1.536541 0.246610 0.000000 1.418971 0.257885 0.000000 1.983559 1.190797 0.000000 1.932617 1.199012 0.000000 1.940117 1.173583 0.000000 1.881676 1.182644 0.000000 1.941928 1.174054 0.000000 1.931550 1.198928 0.000000 0.596118 1.095297 0.000000 0.470205 0.938409 0.000000 0.681382 0.900725 0.000000 0.439515 0.736052 0.000000 0.672146 0.905697 0.000000 0.364953 0.951711 0.000000 0.818901 0.716648 0.000000 0.503679 0.478286 0.000000 0.773138 0.342263 0.000000 0.339961 0.354221 0.000000 0.434180 0.411418 0.000000 0.359932 0.450101 0.000000 0.366699 0.491218 0.000000 0.272919 0.433343 0.000000 0.400643 0.421930 0.000000 0.105869 -1.207704 0.000000 -0.047619 -1.191176 0.000000 0.045631 -1.324699 0.000000 -0.039260 -1.286489 0.000000 0.047618 -1.315885 0.000000 -0.047017 -1.192626 0.000000 -0.975065 -0.251095 0.000000 -0.915011 -0.174479 0.000000 -1.006886 -0.165108 0.000000 -0.166665 -1.083662 0.000000 -0.067699 -1.049430 0.000000 -0.119482 -0.963747 0.000000 -1.134099 -0.857891 0.000000 -0.950134 -0.891777 0.000000 -1.042776 -0.721254 0.000000 -0.917765 -0.167395 0.000000 -0.968542 -0.269237 0.000000 -0.857416 -0.281476 0.000000 -1.045730 1.214093 0.000000 -1.088511 1.159810 0.000000 -1.018370 1.148656 0.000000 -1.034796 0.923468 0.000000 -1.107921 0.927398 0.000000 -1.068552 0.858804 0.000000 -0.936033 0.856763 0.000000 -1.048736 0.863781 0.000000 -0.995676 0.760956 0.000000 -1.017213 1.639430 0.000000 -0.990553 1.677920 0.000000 -1.038548 1.685439 0.000000 -1.084504 1.164738 0.000000 -1.131386 1.105569 0.000000 -1.057104 1.098038 0.000000 -0.910109 1.614318 0.000000 -0.933853 1.576676 0.000000 -0.887530 1.572203 0.000000 -0.937049 2.355210 0.000000 -1.036970 2.160444 0.000000 -0.818982 2.162483 0.000000 -0.857739 2.165480 0.000000 -1.032207 2.160767 0.000000 -0.940983 2.015625 0.000000 -0.839436 1.862577 0.000000 -0.919384 1.868233 0.000000 -0.878196 1.791114 0.000000 -0.911236 1.941116 0.000000 -0.833993 2.069685 0.000000 -0.980745 2.057986 0.000000 -0.997306 2.231357 0.000000 -0.925217 2.231715 0.000000 -0.977147 2.289491 0.000000 -0.594859 2.338866 0.000000 -0.520972 2.353231 0.000000 -0.566620 2.416545 0.000000 -0.638571 2.364867 0.000000 -0.619351 2.368606 0.000000 -0.632162 2.380913 0.000000 -0.675002 2.386445 0.000000 -0.765799 2.347286 0.000000 -0.684436 2.269341 0.000000 -2.659178 4.652832 0.000000 -2.701046 4.579548 0.000000 -2.622435 4.584432 0.000000 -1.152900 3.287399 0.000000 -1.334311 3.208488 0.000000 -1.139921 3.021731 0.000000 -1.949000 3.744406 0.000000 -1.215985 3.792372 0.000000 -1.655647 4.215661 0.000000 -1.038375 2.850126 0.000000 -0.902036 3.095687 0.000000 -1.130913 3.106599 0.000000 -2.917481 4.910059 0.000000 -2.957779 4.835454 0.000000 -2.869775 4.832824 0.000000 8.243621 7.056233 0.000000 6.765378 5.135257 0.000000 7.996173 5.074522 0.000000 2.318861 4.340667 0.000000 2.627924 4.731260 0.000000 2.152431 4.712092 0.000000 3.818883 5.075690 0.000000 3.413579 5.062169 0.000000 3.562714 4.715448 0.000000 2.383520 4.389736 0.000000 2.426040 4.386520 0.000000 2.397895 4.452375 0.000000 2.139965 4.355924 0.000000 2.070173 4.269457 0.000000 2.159016 4.232545 0.000000 1.968246 4.469777 0.000000 1.836249 4.376079 0.000000 1.940453 4.331959 0.000000 1.242111 3.390977 0.000000 0.337257 2.732023 0.000000 1.155056 2.601710 0.000000 1.042731 2.668374 0.000000 0.939862 2.548359 0.000000 1.072816 2.547331 0.000000 1.137899 2.572467 0.000000 0.778256 2.636982 0.000000 1.011587 2.279964 0.000000 1.068643 2.547371 0.000000 1.337047 2.542581 0.000000 1.120155 2.869133 0.000000 1.254579 2.315303 0.000000 1.364700 2.498908 0.000000 1.196642 2.530466 0.000000 1.031237 2.327915 0.000000 1.203549 2.529309 0.000000 1.006135 2.567264 0.000000 0.739797 1.628985 0.000000 0.587167 1.353962 0.000000 0.901701 1.428981 0.000000 0.902412 1.426686 0.000000 0.587037 1.355678 0.000000 0.806438 1.189449 0.000000 0.595532 1.070523 0.000000 0.805539 1.189565 0.000000 0.589012 1.356386 0.000000 0.673213 1.103757 0.000000 0.599859 1.071523 0.000000 0.689340 1.052395 0.000000 0.584426 0.998388 0.000000 0.685983 1.035146 0.000000 0.592832 1.074235 0.000000 0.441092 0.784344 0.000000 0.565294 0.984546 0.000000 0.372908 0.971335 0.000000 0.688791 1.038826 0.000000 0.594163 0.996900 0.000000 0.642659 0.916467 0.000000 0.512822 1.019029 0.000000 0.643600 1.029940 0.000000 0.578052 1.116466 0.000000 0.664468 0.726283 0.000000 0.649449 0.663380 0.000000 0.712913 0.640243 0.000000 0.405458 0.424023 0.000000 0.480319 0.488242 0.000000 0.364923 0.489890 0.000000 0.708215 0.625159 0.000000 0.530351 0.580867 0.000000 0.677837 0.444704 0.000000 0.513088 0.431860 0.000000 0.677172 0.445660 0.000000 0.530665 0.580692 0.000000 0.403091 0.542050 0.000000 0.353349 0.462314 0.000000 0.406027 0.473022 0.000000 -0.205948 -1.538564 0.000000 -0.032331 -1.547031 0.000000 -0.111997 -1.401833 0.000000 0.049010 -1.322012 0.000000 -0.110685 -1.400261 0.000000 -0.046015 -1.552343 0.000000 -0.857115 -0.287472 0.000000 -0.780433 -0.154126 0.000000 -0.921094 -0.168066 0.000000 -0.114245 -1.367642 0.000000 0.050311 -1.337490 0.000000 -0.087964 -1.218090 0.000000 -0.384256 -0.852872 0.000000 -0.654682 -0.904592 0.000000 -0.484852 -1.093426 0.000000 -0.779087 -0.153427 0.000000 -0.855426 -0.289191 0.000000 -0.727144 -0.289610 0.000000 -1.046391 1.081373 0.000000 -0.976592 1.159812 0.000000 -1.086071 1.163150 0.000000 -0.808545 0.865970 0.000000 -0.920895 0.867254 0.000000 -0.855073 0.748077 0.000000 -0.992876 0.767194 0.000000 -0.883026 0.755133 0.000000 -0.937737 0.857153 0.000000 -0.949335 1.411419 0.000000 -0.850861 1.529461 0.000000 -1.013372 1.572370 0.000000 -0.976309 1.159807 0.000000 -1.046087 1.081492 0.000000 -0.968192 1.062158 0.000000 -0.847273 1.526465 0.000000 -0.957077 1.396066 0.000000 -0.838050 1.398749 0.000000 -0.889383 1.880214 0.000000 -0.852910 1.958751 0.000000 -0.925200 1.965515 0.000000 -0.889981 1.638723 0.000000 -0.739021 1.650948 0.000000 -0.826111 1.758306 0.000000 -0.832617 1.476128 0.000000 -0.974567 1.473793 0.000000 -0.834274 1.307648 0.000000 -0.827948 1.958100 0.000000 -0.858397 1.890959 0.000000 -0.814142 1.875938 0.000000 -0.647336 2.146008 0.000000 -0.711560 2.137725 0.000000 -0.679825 2.080148 0.000000 -0.845830 2.034429 0.000000 -0.858433 2.027666 0.000000 -0.848099 2.025941 0.000000 -0.666300 2.899888 0.000000 -1.026191 2.527304 0.000000 -0.649813 2.502136 0.000000 -0.786782 2.121881 0.000000 -0.674656 2.143092 0.000000 -0.769283 2.246678 0.000000 -0.664154 2.360897 0.000000 -0.686410 2.362236 0.000000 -0.671259 2.343110 0.000000 -0.995952 2.878327 0.000000 -1.078265 2.773076 0.000000 -0.935801 2.742097 0.000000 -0.746811 2.477096 0.000000 -0.622728 2.615138 0.000000 -0.795110 2.649821 0.000000 -1.327431 2.473684 0.000000 -0.974608 2.920944 0.000000 -1.482984 2.993757 0.000000 -3.099463 5.848423 0.000000 -3.154612 5.680452 0.000000 -2.981744 5.682951 0.000000 -1.753139 3.978562 0.000000 -0.938191 3.850143 0.000000 -1.314762 4.662114 0.000000 -2.547039 4.820393 0.000000 -2.687018 4.819281 0.000000 -2.620449 4.685492 0.000000 -3.864347 4.905966 0.000000 -4.236859 5.373747 0.000000 -4.243760 4.799096 0.000000 -3.684792 4.482909 0.000000 -3.358759 5.438860 0.000000 -4.095693 5.234475 0.000000 4.445911 6.274219 0.000000 3.064775 4.695959 0.000000 4.567688 4.375856 0.000000 0.956378 4.057348 0.000000 1.281059 4.348152 0.000000 1.030751 4.394075 0.000000 2.569211 4.419663 0.000000 2.777307 4.444977 0.000000 2.652269 4.911586 0.000000 2.532431 4.502309 0.000000 2.626025 4.483313 0.000000 2.684660 4.521404 0.000000 0.788693 3.866589 0.000000 0.955326 4.036164 0.000000 0.867815 4.068527 0.000000 1.248979 4.157874 0.000000 0.946094 4.019537 0.000000 1.273271 3.894639 0.000000 0.850934 3.247719 0.000000 1.281441 3.732692 0.000000 0.767173 3.714150 0.000000 0.654209 2.496604 0.000000 0.668433 2.504846 0.000000 0.661185 2.521976 0.000000 0.703915 2.557737 0.000000 0.699031 2.555813 0.000000 0.714029 2.545698 0.000000 0.900838 1.873934 0.000000 0.906225 1.875023 0.000000 0.900989 1.879550 0.000000 0.731190 1.885522 0.000000 0.877435 1.941131 0.000000 0.792588 2.031673 0.000000 0.904412 1.426395 0.000000 0.942412 1.539843 0.000000 0.846710 1.497729 0.000000 0.918072 1.841524 0.000000 0.634604 1.730068 0.000000 0.942551 1.539611 0.000000 0.745612 1.738666 0.000000 0.880260 1.796566 0.000000 0.731249 1.885807 0.000000 0.856313 1.590488 0.000000 0.803484 1.457038 0.000000 0.911753 1.482103 0.000000 0.692125 1.042099 0.000000 0.849634 1.195574 0.000000 0.668586 1.194564 0.000000 0.930012 1.296074 0.000000 0.848692 1.279217 0.000000 0.930328 1.183464 0.000000 0.806202 1.188618 0.000000 0.931879 1.186060 0.000000 0.847065 1.277000 0.000000 0.844006 1.199026 0.000000 0.689301 1.035319 0.000000 0.826114 1.042828 0.000000 0.714377 0.639101 0.000000 0.811139 0.752877 0.000000 0.660384 0.720548 0.000000 0.826769 1.045429 0.000000 0.688423 1.042936 0.000000 0.791590 0.907799 0.000000 0.637886 0.912617 0.000000 0.791631 0.913835 0.000000 0.687874 1.034890 0.000000 0.753806 0.632582 0.000000 0.707962 0.625723 0.000000 0.751269 0.607996 0.000000 0.468594 0.465394 0.000000 0.611286 0.506495 0.000000 0.485947 0.559871 0.000000 0.494472 0.639343 0.000000 0.407719 0.577510 0.000000 0.478574 0.554553 0.000000 0.412478 0.459659 0.000000 0.481364 0.550858 0.000000 0.375740 0.584851 0.000000 0.480554 0.550669 0.000000 0.378027 0.501479 0.000000 0.483267 0.475259 0.000000 -0.096424 -1.219034 0.000000 -0.228384 -1.313891 0.000000 -0.113064 -1.367798 0.000000 -0.328178 -1.513866 0.000000 -0.208328 -1.536135 0.000000 -0.258177 -1.379147 0.000000 -0.108204 -1.404796 0.000000 -0.256546 -1.378256 0.000000 -0.209039 -1.536275 0.000000 -0.511854 -1.014575 0.000000 -0.300150 -0.878443 0.000000 -0.477643 -0.832238 0.000000 -0.806284 -0.341140 0.000000 -0.758281 -0.261693 0.000000 -0.848707 -0.221920 0.000000 -0.757107 -0.262505 0.000000 -0.805814 -0.341465 0.000000 -0.723227 -0.329812 0.000000 -0.883706 0.799731 0.000000 -1.021473 0.780033 0.000000 -0.889178 0.632971 0.000000 -0.854942 0.748311 0.000000 -0.731771 0.784230 0.000000 -0.808523 0.865736 0.000000 -0.858352 1.101420 0.000000 -1.054729 1.038776 0.000000 -0.913143 0.928774 0.000000 -0.989031 1.109350 0.000000 -0.953029 1.134049 0.000000 -1.001656 1.166064 0.000000 -1.098012 1.251248 0.000000 -0.955118 1.419922 0.000000 -1.089757 1.395459 0.000000 -0.932370 1.327102 0.000000 -0.842055 1.342363 0.000000 -0.943592 1.405251 0.000000 -0.923300 1.156749 0.000000 -0.982390 1.110443 0.000000 -0.915272 1.053599 0.000000 -0.836237 1.791518 0.000000 -0.846379 1.795470 0.000000 -0.831918 1.798781 0.000000 -0.956399 1.420995 0.000000 -1.097721 1.250834 0.000000 -0.877220 1.191072 0.000000 -0.835333 1.807369 0.000000 -0.843747 1.793808 0.000000 -0.828235 1.782526 0.000000 -0.726812 2.196053 0.000000 -0.883730 2.083825 0.000000 -0.756749 2.034964 0.000000 -0.845405 2.014026 0.000000 -0.833841 1.997620 0.000000 -0.846331 2.029972 0.000000 -0.897817 1.851774 0.000000 -0.802996 1.832066 0.000000 -0.863815 1.922843 0.000000 -0.762227 2.577700 0.000000 -0.907036 2.441526 0.000000 -0.709744 2.380557 0.000000 -0.877384 2.072470 0.000000 -0.722979 2.191859 0.000000 -0.925022 2.259881 0.000000 -0.796466 2.449610 0.000000 -0.702535 2.541813 0.000000 -0.826139 2.581095 0.000000 -0.953756 2.981429 0.000000 -1.168755 2.789806 0.000000 -0.860210 2.695996 0.000000 -1.115153 2.650316 0.000000 -0.694627 3.024044 0.000000 -1.096354 3.124587 0.000000 -2.215399 4.524334 0.000000 -1.874011 5.093935 0.000000 -2.522386 5.118892 0.000000 -1.117785 3.324349 0.000000 -1.294739 3.331027 0.000000 -1.225221 3.156427 0.000000 -0.986253 3.263634 0.000000 -0.750546 3.205289 0.000000 -0.859145 3.478552 0.000000 -1.934816 4.971252 0.000000 -2.220943 4.508073 0.000000 -1.736129 4.383039 0.000000 -2.465710 4.310226 0.000000 -2.078784 4.822811 0.000000 -2.462506 4.895652 0.000000 -5.756775 4.419283 0.000000 -5.744562 4.405892 0.000000 -5.741508 4.421998 0.000000 -4.247020 4.999894 0.000000 -4.192639 5.071241 0.000000 -4.264360 5.058742 0.000000 6.901468