<?xml version='1.0'?>
<VTKFile type='UnstructuredGrid' version='0.1' byte_order='LittleEndian'><UnstructuredGrid>
<Piece NumberOfPoints='3000' NumberOfCells='0'>
<PointData Vectors='principal_stress_direction_1 principal_stress_direction_2 principal_stress_direction_3'>
<DataArray type='Float32' Name='principal_stress_direction_1' NumberOfComponents='3' format='ascii'>
0.707109 0.707105 0.000000 -0.980591 0.196063 0.000000 -0.998078 -0.061964 0.000000 -1.000000 0.000000 0.000000 -0.999518 0.031031 0.000000 1.000000 0.000000 0.000000 1.000000 0.000000 0.000000 1.000000 0.000000 0.000000 1.000000 0.000000 0.000000 0.999518 0.031031 0.000000 0.382688 -0.923878 0.000000 0.525733 -0.850650 0.000000 -0.998078 -0.061964 0.000000 1.000000 0.000000 0.000000 1.000000 0.000000 0.000000 1.000000 0.000000 0.000000 -1.000000 0.000000 0.000000 0.707111 -0.707103 0.000000 -1.000000 0.000000 0.000000 -1.000000 0.000000 0.000000 1.000000 0.000000 0.000000 1.000000 0.000000 0.000000 -1.000000 0.000000 0.000000 1.000000 0.000000 0.000000 -0.973254 0.229731 0.000000 -1.000000 0.000000 0.000000 -0.999456 0.032986 0.000000 1.000000 0.000000 0.000000 0.707111 -0.707103 0.000000 -1.000000 0.000000 0.000000 -0.707109 -0.707105 0.000000 0.707109 -0.707105 0.000000 1.000000 0.000000 0.000000 1.000000 0.000000 0.000000 0.031205 -0.999513 0.000000 1.000000 0.000000 0.000000 1.000000 0.000000 0.000000 -1.000000 0.000000 0.000000 -1.000000 0.000000 0.000000 1.000000 0.000000 0.000000 1.000000 0.000000 0.000000 1.000000 0.000000 0.000000 1.000000 0.000000 0.000000 -1.000000 0.000000 0.000000 1.000000 0.000000 0.000000 1.000000 0.000000 0.000000 -1.000000 0.000000 0.000000 1.000000 0.000000 0.000000 1.000000 0.000000 0.000000 1.000000 0.000000 0.000000 1.000000 0.000000 0.000000 1.000000 0.000000 0.000000 0.992518 -0.122096 0.000000 1.000000 0.000000 0.000000 1.000000 0.000000 0.000000 -0.707109 0.707105 0.000000 -0.707109 0.707105 0.000000 1.000000 0.000000 0.000000 1.000000 0.000000 0.000000 -0.707109 0.707105 0.000000 0.707111 -0.707103 0.000000 0.998071 -0.062080 0.000000 1.000000 0.000000 0.000000 0.062138 -0.998068 0.000000 1.000000 0.000000 0.000000 -0.229755 -0.973248 0.000000 0.923890 -0.382659 0.000000 1.000000 0.000000 0.000000 1.000000 0.000000 0.000000 1.000000 0.000000 0.000000 1.000000 0.000000 0.000000 1.000000 0.000000 0.000000 1.000000 0.000000 0.000000 1.000000 0.000000 0.000000 -1.000000 0.000000 0.000000 1.000000 0.000000 0.000000 1.000000 0.000000 0.000000 -0.707109 -0.707105 0.000000 1.000000 0.000000 0.000000 -1.000000 0.000000 0.000000 1.000000 0.000000 0.000000 1.000000 0.000000 0.000000 1.000000 0.000000 0.000000 1.000000 0.000000 0.000000 1.000000 0.000000 0.000000 1.000000 0.000000 0.000000 1.000000 0.000000 0.000000 1.000000 0.000000 0.000000 1.000000 0.000000 0.000000 1.000000 0.000000 0.000000 1.000000 0.000000 0.000000 -0.999999 -0.001139 0.000000 1.000000 0.000000 0.000000 -0.978820 0.204722 0.000000 1.000000 0.000000 0.000000 0.062138 -0.998068 0.000000 1.000000 0.000000 0.000000 -1.000000 0.000000 0.000000 1.000000 0.000000 0.000000 1.000000 0.000000 0.000000 -0.707111 -0.707103 0.000000 1.000000 0.000000 0.000000 1.000000 0.000000 0.000000 1.000000 0.000000 0.000000 -1.000000 0.000000 0.000000 0.707111 -0.707103 0.000000 -1.000000 0.000000 0.000000 1.000000 0.000000 0.000000 0.707109 -0.707105 0.000000 0.923890 -0.382659 0.000000 -1.000000 0.000000 0.000000 1.000000 0.000000 0.000000 1.000000 0.000000 0.000000 -1.000000 0.000000 0.000000 1.000000 0.000000 0.000000 1.000000 0.000000 0.000000 -0.031205 -0.999513 0.000000 1.000000 0.000000 0.000000 1.000000 0.000000 0.000000 -0.707111 -0.707103 0.000000 -0.707109 0.707105 0.000000 1.000000 0.000000 0.000000 1.000000 0.000000 0.000000 -1.000000 0.000000 0.000000 1.000000 0.000000 0.000000 0.707111 -0.707103 0.000000 -0.923890 -0.382659 0.000000 1.000000 0.000000 0.000000 1.000000 0.000000 0.000000 0.987098 0.160116 0.000000 -1.000000 0.000000 0.000000 1.000000 0.000000 0.000000 0.062138 0.998068 0.000000 -0.999518 0.031031 0.000000 -0.062138 0.998068 0.000000 1.000000 0.000000 0.000000 0.707111 -0.707103 0.000000 1.000000 0.000000 0.000000 1.000000 0.000000 0.000000 1.000000 0.000000 0.000000 0.707109 0.707105 0.000000 1.000000 0.000000 0.000000 -1.000000 0.000000 0.000000 1.000000 0.000000 0.000000 -1.000000 0.000000 0.000000 1.000000 0.000000 0.000000 -1.000000 0.000000 0.000000 1.000000 0.000000 0.000000 1.000000 0.000000 0.000000 1.000000 0.000000 0.000000 -0.996603 0.082350 0.000000 1.000000 0.000000 0.000000 1.000000 0.000000 0.000000 -1.000000 0.000000 0.000000 -1.000000 0.000000 0.000000 -1.000000 0.000000 0.000000 -0.275685 -0.961248 0.000000 1.000000 0.000000 0.000000 0.471863 -0.881672 0.000000 1.000000 0.000000 0.000000 -1.000000 0.000000 0.000000 1.000000 0.000000 0.000000 -0.998078 -0.061964 0.000000 -0.122185 -0.992507 0.000000 1.000000 0.000000 0.000000 -1.000000 0.000000 0.000000 0.001953 0.999998 0.000000 1.000000 0.000000 0.000000 1.000000 0.000000 0.000000 -1.000000 0.000000 0.000000 1.000000 0.000000 0.000000 0.707111 -0.707103 0.000000 -1.000000 0.000000 0.000000 1.000000 0.000000 0.000000 0.229754 -0.973249 0.000000 -1.000000 0.000000 0.000000 1.000000 0.000000 0.000000 1.000000 0.000000 0.000000 -0.999997 0.002523 0.000000 1.000000 0.000000 0.000000 0.850654 -0.525726 0.000000 1.000000 0.000000 0.000000 1.000000 0.000000 0.000000 1.000000 0.000000 0.000000 1.000000 0.000000 0.000000 -1.000000 0.000000 0.000000 0.062138 -0.998068 0.000000 -1.000000 0.000000 0.000000 0.707111 -0.707103 0.000000 1.000000 0.000000 0.000000 -0.992513 0.122140 0.000000 -0.229754 0.973249 0.000000 0.062138 0.998068 0.000000 0.983957 -0.178405 0.000000 -1.000000 0.000000 0.000000 1.000000 0.000000 0.000000 -1.000000 0.000000 0.000000 -1.000000 0.000000 0.000000 1.000000 0.000000 0.000000 -1.000000 0.000000 0.000000 1.000000 0.000000 0.000000 1.000000 0.000000 0.000000 1.000000 0.000000 0.000000 1.000000 0.000000 0.000000 1.000000 0.000000 0.000000 -0.923890 -0.382659 0.000000 1.000000 0.000000 0.000000 -0.707111 -0.707103 0.000000 -1.000000 0.000000 0.000000 -1.000000 0.000000 0.000000 0.707111 -0.707103 0.000000 1.000000 0.000000 0.000000 1.000000 0.000000 0.000000 1.000000 0.000000 0.000000 1.000000 0.000000 0.000000 1.000000 0.000000 0.000000 1.000000 0.000000 0.000000 1.000000 0.000000 0.000000 0.707111 -0.707103 0.000000 1.000000 0.000000 0.000000 -0.707109 0.707105 0.000000 1.000000 0.000000 0.000000 0.229755 -0.973248 0.000000 -1.000000 0.000000 0.000000 1.000000 0.000000 0.000000 1.000000 0.000000 0.000000 1.000000 0.000000 0.000000 -0.901313 -0.433168 0.000000 -1.000000 0.000000 0.000000 -1.000000 0.000000 0.000000 1.000000 0.000000 0.000000 1.000000 0.000000 0.000000 -0.707109 -0.707105 0.000000 1.000000 0.000000 0.000000 -1.000000 0.000000 0.000000 -1.000000 0.000000 0.000000 1.000000 0.000000 0.000000 0.178426 0.983953 0.000000 -1.000000 0.000000 0.000000 1.000000 0.000000 0.000000 -1.000000 0.000000 0.000000 -0.707109 0.707105 0.000000 0.992513 0.122140 0.000000 1.000000 0.000000 0.000000 -1.000000 0.000000 0.000000 -1.000000 0.000000 0.000000 0.204748 -0.978815 0.000000 1.000000 0.000000 0.000000 1.000000 0.000000 0.000000 1.000000 0.000000 0.000000 1.000000 0.000000 0.000000 1.000000 0.000000 0.000000 1.000000 0.000000 0.000000 1.000000 0.000000 0.000000 0.253403 -0.967361 0.000000 1.000000 0.000000 0.000000 0.707111 -0.707103 0.000000 -0.229754 0.973249 0.000000 1.000000 0.000000 0.000000 1.000000 0.000000 0.000000 1.000000 0.000000 0.000000 1.000000 0.000000 0.000000 1.000000 0.000000 0.000000 1.000000 0.000000 0.000000 -1.000000 0.000000 0.000000 0.992513 0.122140 0.000000 1.000000 0.000000 0.000000 1.000000 0.000000 0.000000 1.000000 0.000000 0.000000 1.000000 0.000000 0.000000 0.122184 0.992507 0.000000 1.000000 0.000000 0.000000 1.000000 0.000000 0.000000 1.000000 0.000000 0.000000 1.000000 0.000000 0.000000 1.000000 0.000000 0.000000 -1.000000 0.000000 0.000000 -1.000000 0.000000 0.000000 1.000000 0.000000 0.000000 1.000000 0.000000 0.000000 1.000000 0.000000 0.000000 1.000000 0.000000 0.000000 -0.122184 0.992507 0.000000 1.000000 0.000000 0.000000 1.000000 0.000000 0.000000 1.000000 0.000000 0.000000 -0.998078 -0.061964 0.000000 0.992518 -0.122096 0.000000 1.000000 0.000000 0.000000 1.000000 0.000000 0.000000 1.000000 0.000000 0.000000 1.000000 0.000000 0.000000 1.000000 0.000000 0.000000 1.000000 0.000000 0.000000 -1.000000 0.000000 0.000000 1.000000 0.000000 0.000000 1.000000 0.000000 0.000000 -0.923890 -0.382659 0.000000 -0.707111 -0.707103 0.000000 -1.000000 0.000000 0.000000 1.000000 0.000000 0.000000 -1.000000 0.000000 0.000000 0.235794 0.971803 0.000000 1.000000 0.000000 0.000000 1.000000 0.000000 0.000000 1.000000 0.000000 0.000000 -0.912250 -0.409634 0.000000 1.000000 0.000000 0.000000 1.000000 0.000000 0.000000 1.000000 0.000000 0.000000 -0.992518 -0.122096 0.000000 1.000000 0.000000 0.000000 -1.000000 0.000000 0.000000 0.020820 0.999783 0.000000 1.000000 0.000000 0.000000 1.000000 0.000000 0.000000 1.000000 0.000000 0.000000 1.000000 0.000000 0.000000 0.707109 0.707105 0.000000 0.998073 0.062051 0.000000 1.000000 0.000000 0.000000 -0.707111 -0.707103 0.000000 1.000000 0.000000 0.000000 1.000000 0.000000 0.000000 1.000000 0.000000 0.000000 1.000000 0.000000 0.000000 1.000000 0.000000 0.000000 1.000000 0.000000 0.000000 1.000000 0.000000 0.000000 -0.707109 0.707105 0.000000 -0.992518 -0.122096 0.000000 1.000000 0.000000 0.000000 1.000000 0.000000 0.000000 1.000000 0.000000 0.000000 1.000000 0.000000 0.000000 1.000000 0.000000 0.000000 1.000000 0.000000 0.000000 1.000000 0.000000 0.000000 1.000000 0.000000 0.000000 1.000000 0.000000 0.000000 -1.000000 0.000000 0.000000 0.707109 0.707105 0.000000 1.000000 0.000000 0.000000 -0.998073 0.062051 0.000000 1.000000 0.000000 0.000000 -0.038974 -0.999240 0.000000 0.999881 -0.015436 0.000000 1.000000 0.000000 0.000000 1.000000 0.000000 0.000000 1.000000 0.000000 0.000000 1.000000 0.000000 0.000000 1.000000 0.000000 0.000000 1.000000 0.000000 0.000000 -0.707111 -0.707103 0.000000 1.000000 0.000000 0.000000 1.000000 0.000000 0.000000 1.000000 0.000000 0.000000 1.000000 0.000000 0.000000 0.382688 -0.923878 0.000000 -1.000000 0.000000 0.000000 1.000000 0.000000 0.000000 1.000000 0.000000 0.000000 1.000000 0.000000 0.000000 1.000000 0.000000 0.000000 -1.000000 0.000000 0.000000 1.000000 0.000000 0.000000 1.000000 0.000000 0.000000 1.000000 0.000000 0.000000 1.000000 0.000000 0.000000 1.000000 0.000000 0.000000 1.000000 0.000000 0.000000 0.041559 0.999136 0.000000 0.062138 -0.998068 0.000000 -0.707111 -0.707103 0.000000 -0.973254 0.229731 0.000000 1.000000 0.000000 0.000000 1.000000 0.000000 0.000000 0.850660 -0.525716 0.000000 1.000000 0.000000 0.000000 -1.000000 0.000000 0.000000 1.000000 0.000000 0.000000 -0.062138 -0.998068 0.000000 1.000000 0.000000 0.000000 1.000000 0.000000 0.000000 -0.382688 -0.923878 0.000000 1.000000 0.000000 0.000000 -0.707111 -0.707103 0.000000 1.000000 0.000000 0.000000 1.000000 0.000000 0.000000 -1.000000 0.000000 0.000000 1.000000 0.000000 0.000000 0.973254 -0.229731 0.000000 1.000000 0.000000 0.000000 -1.000000 0.000000 0.000000 1.000000 0.000000 0.000000 1.000000 0.000000 0.000000 1.000000 0.000000 0.000000 -1.000000 0.000000 0.000000 0.707111 -0.707103 0.000000 -0.707111 -0.707103 0.000000 1.000000 0.000000 0.000000 1.000000 0.000000 0.000000 1.000000 0.000000 0.000000 1.000000 0.000000 0.000000 1.000000 0.000000 0.000000 1.000000 0.000000 0.000000 1.000000 0.000000 0.000000 1.000000 0.000000 0.000000 1.000000 0.000000 0.000000 1.000000 0.000000 0.000000 -1.000000 0.000000 0.000000 1.000000 0.000000 0.000000 -1.000000 0.000000 0.000000 0.923890 -0.382659 0.000000 -1.000000 0.000000 0.000000 -1.000000 0.000000 0.000000 1.000000 0.000000 0.000000 1.000000 0.000000 0.000000 1.000000 0.000000 0.000000 1.000000 0.000000 0.000000 -1.000000 0.000000 0.000000 1.000000 0.000000 0.000000 -0.992513 -0.122140 0.000000 1.000000 0.000000 0.000000 1.000000 0.000000 0.000000 1.000000 0.000000 0.000000 1.000000 0.000000 0.000000 0.382688 -0.923878 0.000000 -1.000000 0.000000 0.000000 1.000000 0.000000 0.000000 -0.707109 -0.707105 0.000000 0.987098 0.160116 0.000000 -1.000000 0.000000 0.000000 0.998073 0.062051 0.000000 0.229755 -0.973248 0.000000 0.707111 -0.707103 0.000000 1.000000 0.000000 0.000000 1.000000 0.000000 0.000000 1.000000 0.000000 0.000000 1.000000 0.000000 0.000000 1.000000 0.000000 0.000000 0.923890 -0.382659 0.000000 1.000000 0.000000 0.000000 -0.122184 0.992507 0.000000 -1.000000 0.000000 0.000000 1.000000 0.000000 0.000000 1.000000 0.000000 0.000000 1.000000 0.000000 0.000000 -1.000000 0.000000 0.000000 1.000000 0.000000 0.000000 -1.000000 0.000000 0.000000 1.000000 0.000000 0.000000 1.000000 0.000000 0.000000 1.000000 0.000000 0.000000 1.000000 0.000000 0.000000 0.926892 0.375327 0.000000 -1.000000 0.000000 0.000000 1.000000 0.000000 0.000000 1.000000 0.000000 0.000000 1.000000 0.000000 0.000000 1.000000 0.000000 0.000000 -1.000000 0.000000 0.000000 1.000000 0.000000 0.000000 -0.707109 0.707105 0.000000 -0.707109 0.707105 0.000000 -1.000000 0.000000 0.000000 1.000000 0.000000 0.000000 -0.041559 0.999136 0.000000 -1.000000 0.000000 0.000000 1.000000 0.000000 0.000000 1.000000 0.000000 0.000000 -1.000000 0.000000 0.000000 0.992513 -0.122140 0.000000 1.000000 0.000000 0.000000 -1.000000 0.000000 0.000000 1.000000 0.000000 0.000000 -1.000000 0.000000 0.000000 -1.000000 0.000000 0.000000 1.000000 0.000000 0.000000 1.000000 0.000000 0.000000 -1.000000 0.000000 0.000000 1.000000 0.000000 0.000000 -0.707109 0.707105 0.000000 -1.000000 0.000000 0.000000 1.000000 0.000000 0.000000 1.000000 0.000000 0.000000 1.000000 0.000000 0.000000 1.000000 0.000000 0.000000 1.000000 0.000000 0.000000 1.000000 0.000000 0.000000 -0.409660 -0.912238 0.000000 1.000000 0.000000 0.000000 0.114856 0.993382 0.000000 -0.972539 -0.232740 0.000000 -0.707111 -0.707103 0.000000 1.000000 0.000000 0.000000 -0.999524 -0.030858 0.000000 0.707109 0.707105 0.000000 1.000000 0.000000 0.000000 1.000000 0.000000 0.000000 1.000000 0.000000 0.000000 1.000000 0.000000 0.000000 0.122184 0.992507 0.000000 1.000000 0.000000 0.000000 1.000000 0.000000 0.000000 -1.000000 0.000000 0.000000 1.000000 0.000000 0.000000 -0.999518 0.031031 0.000000 -1.000000 0.000000 0.000000 1.000000 0.000000 0.000000 -1.000000 0.000000 0.000000 -0.923890 -0.382659 0.000000 -0.707111 -0.707103 0.000000 1.000000 0.000000 0.000000 1.000000 0.000000 0.000000 0.707111 -0.707103 0.000000 1.000000 0.000000 0.000000 1.000000 0.000000 0.000000 1.000000 0.000000 0.000000 1.000000 0.000000 0.000000 -0.707111 -0.707103 0.000000 1.000000 0.000000 0.000000 1.000000 0.000000 0.000000 1.000000 0.000000 0.000000 0.030232 -0.999543 0.000000 1.000000 0.000000 0.000000 -1.000000 0.000000 0.000000 1.000000 0.000000 0.000000 1.000000 0.000000 0.000000 1.000000 0.000000 0.000000 -1.000000 0.000000 0.000000 -1.000000 0.000000 0.000000 -0.707109 0.707105 0.000000 -1.000000 0.000000 0.000000 -1.000000 0.000000 0.000000 -1.000000 0.000000 0.000000 1.000000 0.000000 0.000000 1.000000 0.000000 0.000000 1.000000 0.000000 0.000000 0.062138 0.998068 0.000000 1.000000 0.000000 0.000000 -0.707109 0.707105 0.000000 -1.000000 0.000000 0.000000 1.000000 0.000000 0.000000 1.000000 0.000000 0.000000 -0.707111 -0.707103 0.000000 1.000000 0.000000 0.000000 1.000000 0.000000 0.000000 -0.999975 0.007120 0.000000 1.000000 0.000000 0.000000 -1.000000 0.000000 0.000000 -1.000000 0.000000 0.000000 -1.000000 0.000000 0.000000 0.382688 -0.923878 0.000000 1.000000 0.000000 0.000000 1.000000 0.000000 0.000000 1.000000 0.000000 0.000000 1.000000 0.000000 0.000000 0.999518 -0.031031 0.000000 1.000000 0.000000 0.000000 1.000000 0.000000 0.000000 1.000000 0.000000 0.000000 -1.000000 0.000000 0.000000 1.000000 0.000000 0.000000 1.000000 0.000000 0.000000 1.000000 0.000000 0.000000 1.000000 0.000000 0.000000 1.000000 0.000000 0.000000 1.000000 0.000000 0.000000 1.000000 0.000000 0.000000 0.382688 -0.923878 0.000000 1.000000 0.000000 0.000000 1.000000 0.000000 0.000000 1.000000 0.000000 0.000000 1.000000 0.000000 0.000000 1.000000 0.000000 0.000000 1.000000 0.000000 0.000000 -0.999524 -0.030858 0.000000 -0.983959 0.178395 0.000000 1.000000 0.000000 0.000000 1.000000 0.000000 0.000000 -0.707111 -0.707103 0.000000 1.000000 0.000000 0.000000 1.000000 0.000000 0.000000 1.000000 0.000000 0.000000 1.000000 0.000000 0.000000 -1.000000 0.000000 0.000000 1.000000 0.000000 0.000000 1.000000 0.000000 0.000000 1.000000 0.000000 0.000000 0.707111 -0.707103 0.000000 -1.000000 0.000000 0.000000 -1.000000 0.000000 0.000000 -1.000000 0.000000 0.000000 0.031205 0.999513 0.000000 0.707111 -0.707103 0.000000 1.000000 0.000000 0.000000 1.000000 0.000000 0.000000 0.999975 0.007120 0.000000 1.000000 0.000000 0.000000 1.000000 0.000000 0.000000 0.707109 0.707105 0.000000 1.000000 0.000000 0.000000 -1.000000 0.000000 0.000000 -0.707109 0.707105 0.000000 1.000000 0.000000 0.000000 1.000000 0.000000 0.000000 1.000000 0.000000 0.000000 -1.000000 0.000000 0.000000 -1.000000 0.000000 0.000000 1.000000 0.000000 0.000000 -0.229755 -0.973248 0.000000 -1.000000 0.000000 0.000000 1.000000 0.000000 0.000000 1.000000 0.000000 0.000000 -0.999524 -0.030858 0.000000 1.000000 0.000000 0.000000 1.000000 0.000000 0.000000 1.000000 0.000000 0.000000 -1.000000 0.000000 0.000000 -1.000000 0.000000 0.000000 0.948694 -0.316197 0.000000 -1.000000 0.000000 0.000000 1.000000 0.000000 0.000000 -0.707109 0.707105 0.000000 -1.000000 0.000000 0.000000 1.000000 0.000000 0.000000 -1.000000 0.000000 0.000000 0.707109 0.707105 0.000000 1.000000 0.000000 0.000000 1.000000 0.000000 0.000000 1.000000 0.000000 0.000000 1.000000 0.000000 0.000000 1.000000 0.000000 0.000000 1.000000 0.000000 0.000000 1.000000 0.000000 0.000000 1.000000 0.000000 0.000000 1.000000 0.000000 0.000000 -0.707111 -0.707103 0.000000 1.000000 0.000000 0.000000 1.000000 0.000000 0.000000 0.923890 -0.382659 0.000000 -1.000000 0.000000 0.000000 -0.061898 -0.998082 0.000000 1.000000 0.000000 0.000000 -0.987098 0.160116 0.000000 -1.000000 0.000000 0.000000 -1.000000 0.000000 0.000000 1.000000 0.000000 0.000000 1.000000 0.000000 0.000000 1.000000 0.000000 0.000000 1.000000 0.000000 0.000000 -0.707111 -0.707103 0.000000 1.000000 0.000000 0.000000 1.000000 0.000000 0.000000 1.000000 0.000000 0.000000 1.000000 0.000000 0.000000 0.020820 0.999783 0.000000 1.000000 0.000000 0.000000 1.000000 0.000000 0.000000 -1.000000 0.000000 0.000000 1.000000 0.000000 0.000000 1.000000 0.000000 0.000000 -0.999956 0.009377 0.000000 1.000000 0.000000 0.000000 0.992513 0.122140 0.000000 1.000000 0.000000 0.000000 1.000000 0.000000 0.000000 1.000000 0.000000 0.000000 1.000000 0.000000 0.000000 1.000000 0.000000 0.000000 1.000000 0.000000 0.000000 -0.992513 -0.122140 0.000000 1.000000 0.000000 0.000000 1.000000 0.000000 0.000000 -1.000000 0.000000 0.000000 1.000000 0.000000 0.000000 1.000000 0.000000 0.000000 1.000000 0.000000 0.000000 1.000000 0.000000 0.000000 1.000000 0.000000 0.000000 1.000000 0.000000 0.000000 0.973254 0.229731 0.000000 1.000000 0.000000 0.000000 1.000000 0.000000 0.000000 1.000000 0.000000 0.000000 1.000000 0.000000 0.000000 1.000000 0.000000 0.000000 1.000000 0.000000 0.000000 -0.881684 -0.471840 0.000000 1.000000 0.000000 0.000000 1.000000 0.000000 0.000000 -0.998078 -0.061964 0.000000 -0.992513 0.122140 0.000000 -1.000000 0.000000 0.000000 1.000000 0.000000 0.000000 1.000000 0.000000 0.000000 1.000000 0.000000 0.000000 1.000000 0.000000 0.000000 1.000000 0.000000 0.000000 -1.000000 0.000000 0.000000 1.000000 0.000000 0.000000 1.000000 0.000000 0.000000 -0.707111 -0.707103 0.000000 -1.000000 0.000000 0.000000 -0.122185 -0.992507 0.000000 0.707111 -0.707103 0.000000 1.000000 0.000000 0.000000 -1.000000 0.000000 0.000000 -1.000000 0.000000 0.000000 1.000000 0.000000 0.000000 -1.000000 0.000000 0.000000 1.000000 0.000000 0.000000 1.000000 0.000000 0.000000 1.000000 0.000000 0.000000 1.000000 0.000000 0.000000 1.000000 0.000000 0.000000 1.000000 0.000000 0.000000 1.000000 0.000000 0.000000 0.382688 -0.923878 0.000000 -0.707109 0.707105 0.000000 -0.996603 0.082350 0.000000 1.000000 0.000000 0.000000 -0.150865 0.988554 0.000000 1.000000 0.000000 0.000000 1.000000 0.000000 0.000000 -0.707111 -0.707103 0.000000 1.000000 0.000000 0.000000 1.000000 0.000000 0.000000 0.998078 -0.061964 0.000000 1.000000 0.000000 0.000000 -1.000000 0.000000 0.000000 1.000000 0.000000 0.000000 -1.000000 0.000000 0.000000 1.000000 0.000000 0.000000 -1.000000 0.000000 0.000000 -0.999889 -0.014927 0.000000 1.000000 0.000000 0.000000 1.000000 0.000000 0.000000 1.000000 0.000000 0.000000 1.000000 0.000000 0.000000 1.000000 0.000000 0.000000 -0.122185 0.992507 0.000000 0.707111 -0.707103 0.000000 1.000000 0.000000 0.000000 1.000000 0.000000 0.000000 -0.707111 -0.707103 0.000000 1.000000 0.000000 0.000000 1.000000 0.000000 0.000000 0.707111 -0.707103 0.000000 1.000000 0.000000 0.000000 -0.204748 0.978815 0.000000 1.000000 0.000000 0.000000 1.000000 0.000000 0.000000 1.000000 0.000000 0.000000 1.000000 0.000000 0.000000 1.000000 0.000000 0.000000 -0.996603 0.082350 0.000000 1.000000 0.000000 0.000000 0.707111 -0.707103 0.000000 0.707111 -0.707103 0.000000 -0.122185 -0.992507 0.000000 1.000000 0.000000 0.000000 -0.062138 0.998068 0.000000 1.000000 0.000000 0.000000 1.000000 0.000000 0.000000 1.000000 0.000000 0.000000 -0.707111 -0.707103 0.000000 0.948688 -0.316212 0.000000 -1.000000 0.000000 0.000000 1.000000 0.000000 0.000000 -1.000000 0.000000 0.000000 1.000000 0.000000 0.000000 1.000000 0.000000 0.000000 -1.000000 0.000000 0.000000 1.000000 0.000000 0.000000 1.000000 0.000000 0.000000 -1.000000 0.000000 0.000000 1.000000 0.000000 0.000000 1.000000 0.000000 0.000000 -1.000000 0.000000 0.000000 -1.000000 0.000000 0.000000 -1.000000 0.000000 0.000000 1.000000 0.000000 0.000000 1.000000 0.000000 0.000000 1.000000 0.000000 0.000000 -1.000000 0.000000 0.000000 1.000000 0.000000 0.000000 1.000000 0.000000 0.000000 0.707111 -0.707103 0.000000 -1.000000 0.000000 0.000000 1.000000 0.000000 0.000000 -1.000000 0.000000 0.000000 -0.999147 0.041299 0.000000 1.000000 0.000000 0.000000 -0.433193 -0.901301 0.000000 1.000000 0.000000 0.000000 -0.041559 0.999136 0.000000 -1.000000 0.000000 0.000000 1.000000 0.000000 0.000000 1.000000 0.000000 0.000000 1.000000 0.000000 0.000000 1.000000 0.000000 0.000000 1.000000 0.000000 0.000000 1.000000 0.000000 0.000000 1.000000 0.000000 0.000000 1.000000 0.000000 0.000000 1.000000 0.000000 0.000000 1.000000 0.000000 0.000000 -0.992513 0.122140 0.000000 1.000000 0.000000 0.000000 0.992513 -0.122140 0.000000 1.000000 0.000000 0.000000 -0.707111 -0.707103 0.000000 -0.707109 0.707105 0.000000 0.998073 0.062051 0.000000 -1.000000 0.000000 0.000000 0.999975 -0.007120 0.000000 -0.707109 0.707105 0.000000 1.000000 0.000000 0.000000 -1.000000 0.000000 0.000000 1.000000 0.000000 0.000000 1.000000 0.000000 0.000000 0.160184 0.987087 0.000000 0.707111 -0.707103 0.000000 0.992513 0.122140 0.000000 1.000000 0.000000 0.000000 1.000000 0.000000 0.000000 -1.000000 0.000000 0.000000 0.707111 -0.707103 0.000000 1.000000 0.000000 0.000000 0.707111 -0.707103 0.000000 -1.000000 0.000000 0.000000 -0.707111 -0.707103 0.000000 1.000000 0.000000 0.000000 -1.000000 0.000000 0.000000 -0.707111 -0.707103 0.000000 1.000000 0.000000 0.000000 1.000000 0.000000 0.000000 1.000000 0.000000 0.000000 -1.000000 0.000000 0.000000 1.000000 0.000000 0.000000 -0.707111 -0.707103 0.000000 1.000000 0.000000 0.000000 1.000000 0.000000 0.000000 1.000000 0.000000 0.000000 1.000000 0.000000 0.000000 1.000000 0.000000 0.000000 1.000000 0.000000 0.000000 0.707109 -0.707105 0.000000 1.000000 0.000000 0.000000 0.992518 -0.122096 0.000000 -1.000000 0.000000 0.000000 1.000000 0.000000 0.000000 1.000000 0.000000 0.000000 1.000000 0.000000 0.000000 1.000000 0.000000 0.000000 1.000000 0.000000 0.000000 1.000000 0.000000 0.000000 1.000000 0.000000 0.000000 1.000000 0.000000 0.000000 1.000000 0.000000 0.000000 1.000000 0.000000 0.000000 1.000000 0.000000 0.000000 1.000000 0.000000 0.000000 -0.707109 0.707105 0.000000 1.000000 0.000000 0.000000 -1.000000 0.000000 0.000000 -0.923890 -0.382659 0.000000 1.000000 0.000000 0.000000 1.000000 0.000000 0.000000 -0.917987 -0.396610 0.000000 1.000000 0.000000 0.000000 1.000000 0.000000 0.000000 0.707111 -0.707103 0.000000 1.000000 0.000000 0.000000 1.000000 0.000000 0.000000 -0.235796 -0.971803 0.000000 1.000000 0.000000 0.000000 1.000000 0.000000 0.000000 -0.707111 -0.707103 0.000000 0.992513 0.122140 0.000000 -1.000000 0.000000 0.000000 1.000000 0.000000 0.000000 1.000000 0.000000 0.000000 1.000000 0.000000 0.000000 1.000000 0.000000 0.000000 1.000000 0.000000 0.000000 1.000000 0.000000 0.000000 -0.707109 0.707105 0.000000 1.000000 0.000000 0.000000 -1.000000 0.000000 0.000000 -1.000000 0.000000 0.000000 -1.000000 0.000000 0.000000 1.000000 0.000000 0.000000 1.000000 0.000000 0.000000 1.000000 0.000000 0.000000 -1.000000 0.000000 0.000000 1.000000 0.000000 0.000000 1.000000 0.000000 0.000000 1.000000 0.000000 0.000000 1.000000 0.000000 0.000000 1.000000 0.000000 0.000000 1.000000 0.000000 0.000000 1.000000 0.000000 0.000000 -0.998919 -0.046491 0.000000 -0.999147 0.041299 0.000000 -1.000000 0.000000 0.000000 0.707111 -0.707103 0.000000 0.382688 -0.923878 0.000000 0.062138 -0.998068 0.000000 1.000000 0.000000 0.000000 -1.000000 0.000000 0.000000 1.000000 0.000000 0.000000 -0.923890 -0.382659 0.000000 0.003906 0.999992 0.000000 1.000000 0.000000 0.000000 -0.707111 -0.707103 0.000000 1.000000 0.000000 0.000000 1.000000 0.000000 0.000000 -1.000000 0.000000 0.000000 1.000000 0.000000 0.000000 0.707109 0.707105 0.000000 0.998073 -0.062051 0.000000 -0.707111 -0.707103 0.000000 1.000000 0.000000 0.000000 -0.121271 0.992619 0.000000 -1.000000 0.000000 0.000000 1.000000 0.000000 0.000000 -0.881684 -0.471840 0.000000 -1.000000 0.000000 0.000000 -1.000000 0.000000 0.000000 1.000000 0.000000 0.000000 -0.015619 0.999878 0.000000 -0.062138 -0.998068 0.000000 1.000000 0.000000 0.000000 -1.000000 0.000000 0.000000 -1.000000 0.000000 0.000000 1.000000 0.000000 0.000000 -0.844342 -0.535804 0.000000 1.000000 0.000000 0.000000 1.000000 0.000000 0.000000 1.000000 0.000000 0.000000 1.000000 0.000000 0.000000 1.000000 0.000000 0.000000 -1.000000 0.000000 0.000000 1.000000 0.000000 0.000000 1.000000 0.000000 0.000000 1.000000 0.000000 0.000000 1.000000 0.000000 0.000000 0.707111 -0.707103 0.000000 1.000000 0.000000 0.000000 1.000000 0.000000 0.000000 1.000000 0.000000 0.000000 -0.229755 -0.973248 0.000000 1.000000 0.000000 0.000000 1.000000 0.000000 0.000000 1.000000 0.000000 0.000000 0.707109 0.707105 0.000000 1.000000 0.000000 0.000000 1.000000 0.000000 0.000000 -0.122184 0.992507 0.000000 0.707109 -0.707105 0.000000 1.000000 0.000000 0.000000 -1.000000 0.000000 0.000000 -1.000000 0.000000 0.000000 1.000000 0.000000 0.000000 -1.000000 0.000000 0.000000 -1.000000 0.000000 0.000000 1.000000 0.000000 0.000000 0.999147 0.041299 0.000000 0.999147 0.041299 0.000000 1.000000 0.000000 0.000000 1.000000 0.000000 0.000000 1.000000 0.000000 0.000000 0.707109 -0.707105 0.000000 1.000000 0.000000 0.000000 -1.000000 0.000000 0.000000 1.000000 0.000000 0.000000 1.000000 0.000000 0.000000 0.707109 0.707105 0.000000 1.000000 0.000000 0.000000 -0.992513 0.122140 0.000000 0.707111 -0.707103 0.000000 1.000000 0.000000 0.000000 0.003906 -0.999992 0.000000 1.000000 0.000000 0.000000 -0.998078 -0.061964 0.000000 -0.707111 -0.707103 0.000000 1.000000 0.000000 0.000000 -0.999889 -0.014927 0.000000 -1.000000 0.000000 0.000000 1.000000 0.000000 0.000000 1.000000 0.000000 0.000000 1.000000 0.000000 0.000000 1.000000 0.000000 0.000000 1.000000 0.000000 0.000000 1.000000 0.000000 0.000000 1.000000 0.000000 0.000000 -0.999524 -0.030858 0.000000 1.000000 0.000000 0.000000 1.000000 0.000000 0.000000 0.707109 -0.707105 0.000000 1.000000 0.000000 0.000000 1.000000 0.000000 0.000000 1.000000 0.000000 0.000000 1.000000 0.000000 0.000000 1.000000 0.000000 0.000000 1.000000 0.000000 0.000000 1.000000 0.000000 0.000000 1.000000 0.000000 0.000000 1.000000 0.000000 0.000000 1.000000 0.000000 0.000000 1.000000 0.000000 0.000000 1.000000 0.000000 0.000000 1.000000 0.000000 0.000000 0.229755 -0.973248 0.000000 1.000000 0.000000 0.000000 1.000000 0.000000 0.000000 1.000000 0.000000 0.000000 -1.000000 0.000000 0.000000 -0.999889 -0.014927 0.000000 1.000000 0.000000 0.000000 0.707111 -0.707103 0.000000 1.000000 0.000000 0.000000 0.525737 -0.850647 0.000000 1.000000 0.000000 0.000000 1.000000 0.000000 0.000000 1.000000 0.000000 0.000000 -1.000000 0.000000 0.000000 -0.707109 0.707105 0.000000 1.000000 0.000000 0.000000 1.000000 0.000000 0.000000 -1.000000 0.000000 0.000000 -0.122184 -0.992508 0.000000 1.000000 0.000000 0.000000 -1.000000 0.000000 0.000000 -0.999979 -0.006428 0.000000 1.000000 0.000000 0.000000 0.999524 -0.030858 0.000000 1.000000 0.000000 0.000000 1.000000 0.000000 0.000000 1.000000 0.000000 0.000000 1.000000 0.000000 0.000000 -1.000000 0.000000 0.000000 1.000000 0.000000 0.000000 1.000000 0.000000 0.000000 -0.707111 -0.707103 0.000000 1.000000 0.000000 0.000000 -0.229754 0.973249 0.000000 1.000000 0.000000 0.000000 -0.707109 -0.707105 0.000000 1.000000 0.000000 0.000000 0.229754 -0.973249 0.000000 0.229754 -0.973249 0.000000 1.000000 0.000000 0.000000 1.000000 0.000000 0.000000 1.000000 0.000000 0.000000 -0.999524 0.030858 0.000000 1.000000 0.000000 0.000000 1.000000 0.000000 0.000000 0.122184 -0.992507 0.000000 -1.000000 0.000000 0.000000 1.000000 0.000000 0.000000 1.000000 0.000000 0.000000 -1.000000 0.000000 0.000000 1.000000 0.000000 0.000000 0.707111 -0.707103 0.000000 0.707111 -0.707103 0.000000 1.000000 0.000000 0.000000 1.000000 0.000000 0.000000 1.000000 0.000000 0.000000 -1.000000 0.000000 0.000000 1.000000 0.000000 0.000000 1.000000 0.000000 0.000000 -0.707109 0.707105 0.000000 1.000000 0.000000 0.000000 -1.000000 0.000000 0.000000 0.062138 -0.998068 0.000000 0.06213