<?xml version='1.0'?>
<VTKFile type='UnstructuredGrid' version='0.1' byte_order='LittleEndian'><UnstructuredGrid>
<Piece NumberOfPoints='3000' NumberOfCells='0'>
<PointData Vectors='principal_stress_direction_1 principal_stress_direction_2 principal_stress_direction_3'>
<DataArray type='Float32' Name='principal_stress_direction_1' NumberOfComponents='3' format='ascii'>
-0.990894 0.134648 0.000000 -0.750149 0.661269 0.000000 -0.831534 -0.555473 0.000000 0.998561 -0.053624 0.000000 0.570600 -0.821228 0.000000 0.646425 -0.762978 0.000000 -0.456086 -0.889936 0.000000 -0.970089 -0.242750 0.000000 -0.141910 -0.989880 0.000000 -0.811936 -0.583747 0.000000 0.850557 -0.525883 0.000000 0.978958 0.204062 0.000000 -0.986348 -0.164676 0.000000 0.999891 -0.014783 0.000000 -0.997392 0.072168 0.000000 -0.999517 0.031075 0.000000 -0.791882 0.610674 0.000000 -0.574473 0.818524 0.000000 0.811959 -0.583714 0.000000 -0.758232 0.651985 0.000000 -0.972226 -0.234043 0.000000 0.999283 -0.037873 0.000000 0.900927 -0.433972 0.000000 0.386013 -0.922494 0.000000 0.723956 -0.689846 0.000000 0.758231 -0.651986 0.000000 0.683237 -0.730197 0.000000 -0.090600 -0.995887 0.000000 -0.482948 -0.875649 0.000000 0.134306 -0.990940 0.000000 -0.241481 -0.970405 0.000000 -0.185858 -0.982577 0.000000 -0.599477 0.800392 0.000000 -0.401349 -0.915925 0.000000 -0.883697 -0.468059 0.000000 -0.402084 -0.915603 0.000000 0.920470 -0.390813 0.000000 -0.978264 -0.207362 0.000000 0.740718 -0.671817 0.000000 0.145996 0.989285 0.000000 0.834046 0.551695 0.000000 -0.739418 0.673246 0.000000 -0.993436 0.114391 0.000000 -0.724064 -0.689732 0.000000 0.571826 0.820375 0.000000 -0.823818 0.566855 0.000000 0.216365 0.976313 0.000000 -0.771331 0.636434 0.000000 -0.894439 -0.447191 0.000000 -0.952953 -0.303118 0.000000 -0.997406 -0.071983 0.000000 -0.077500 -0.996992 0.000000 0.999952 -0.009789 0.000000 0.881810 -0.471604 0.000000 0.894773 -0.446521 0.000000 -0.951124 -0.308810 0.000000 0.866113 -0.499848 0.000000 0.812154 -0.583443 0.000000 0.097416 -0.995244 0.000000 0.365714 -0.930727 0.000000 -0.133037 -0.991111 0.000000 0.251343 -0.967898 0.000000 0.261906 -0.965093 0.000000 -0.236925 -0.971528 0.000000 -0.134176 -0.990957 0.000000 -0.109610 -0.993975 0.000000 -0.471765 -0.881724 0.000000 -0.993620 -0.112781 0.000000 -0.532307 -0.846552 0.000000 -0.859925 -0.510420 0.000000 0.992901 -0.118941 0.000000 0.994379 -0.105880 0.000000 -0.943173 -0.332301 0.000000 0.919505 -0.393077 0.000000 -0.155800 -0.987789 0.000000 0.868654 0.495420 0.000000 -0.396497 -0.918036 0.000000 0.542827 -0.839845 0.000000 -0.872023 -0.489464 0.000000 0.167278 0.985910 0.000000 0.830956 0.556338 0.000000 -0.778113 0.628124 0.000000 0.949929 0.312467 0.000000 -0.165370 0.986232 0.000000 0.359719 0.933061 0.000000 -0.633529 -0.773719 0.000000 -0.847396 0.530961 0.000000 -0.994411 -0.105582 0.000000 0.845317 -0.534266 0.000000 0.694839 -0.719165 0.000000 -0.992001 -0.126232 0.000000 0.925319 -0.379189 0.000000 0.804716 -0.593661 0.000000 0.719302 -0.694697 0.000000 0.806302 -0.591504 0.000000 0.855137 -0.518402 0.000000 0.774369 -0.632734 0.000000 -0.651431 -0.758707 0.000000 0.598152 -0.801382 0.000000 0.874785 -0.484512 0.000000 0.920303 -0.391206 0.000000 0.543044 -0.839704 0.000000 -0.019684 -0.999806 0.000000 0.095810 -0.995400 0.000000 -0.133701 -0.991022 0.000000 0.036608 -0.999330 0.000000 -0.072957 -0.997335 0.000000 -0.175543 -0.984472 0.000000 -0.734385 -0.678733 0.000000 -0.690630 -0.723208 0.000000 -0.348176 -0.937429 0.000000 -0.984769 -0.173867 0.000000 -0.706309 -0.707903 0.000000 -0.999603 -0.028185 0.000000 -0.733071 -0.680153 0.000000 0.989235 0.146335 0.000000 -0.757560 -0.652766 0.000000 -0.052314 -0.998631 0.000000 -0.200923 -0.979607 0.000000 -0.980764 -0.195199 0.000000 -0.618654 -0.785664 0.000000 -0.579978 -0.814632 0.000000 -0.785603 0.618731 0.000000 -0.865747 -0.500483 0.000000 -0.326653 0.945144 0.000000 -0.958989 -0.283442 0.000000 -0.876830 -0.480800 0.000000 -0.862986 0.505227 0.000000 -0.812845 0.582480 0.000000 0.155166 -0.987888 0.000000 -0.987870 -0.155286 0.000000 -0.689377 0.724403 0.000000 0.682990 0.730428 0.000000 -0.998741 -0.050173 0.000000 -0.113171 -0.993575 0.000000 0.782387 -0.622792 0.000000 0.952203 -0.305466 0.000000 -0.967786 -0.251775 0.000000 0.766537 -0.642200 0.000000 0.753425 -0.657534 0.000000 -0.132820 -0.991140 0.000000 -0.023124 -0.999733 0.000000 -0.975408 -0.220406 0.000000 0.460046 -0.887895 0.000000 0.998377 -0.056953 0.000000 0.999862 -0.016584 0.000000 0.808974 -0.587845 0.000000 0.805906 -0.592044 0.000000 -0.007529 -0.999972 0.000000 -0.954448 -0.298376 0.000000 0.991159 -0.132678 0.000000 0.601325 -0.799004 0.000000 -0.069119 -0.997608 0.000000 0.069762 -0.997564 0.000000 -0.097018 -0.995283 0.000000 0.160748 -0.986995 0.000000 0.027552 -0.999620 0.000000 -0.217240 -0.976118 0.000000 -0.602877 -0.797834 0.000000 -0.166548 -0.986033 0.000000 -0.016758 -0.999860 0.000000 -0.355684 -0.934606 0.000000 -0.024174 -0.999708 0.000000 -0.956662 -0.291199 0.000000 0.109479 -0.993989 0.000000 0.333693 -0.942682 0.000000 -0.997105 -0.076037 0.000000 -0.341240 -0.939976 0.000000 -0.854529 -0.519403 0.000000 -0.286135 -0.958189 0.000000 -0.607012 -0.794693 0.000000 0.805807 -0.592178 0.000000 -0.362593 -0.931948 0.000000 0.239158 -0.970981 0.000000 0.986437 -0.164140 0.000000 -0.953479 0.301460 0.000000 0.845902 0.533339 0.000000 0.789887 0.613253 0.000000 -0.985437 0.170044 0.000000 -0.918378 -0.395705 0.000000 -0.979928 0.199351 0.000000 -0.874699 0.484667 0.000000 0.746190 -0.665733 0.000000 0.716759 -0.697321 0.000000 -0.938765 -0.344558 0.000000 -0.999977 0.006827 0.000000 0.398726 -0.917070 0.000000 0.110726 0.993851 0.000000 0.802974 -0.596013 0.000000 0.675759 -0.737122 0.000000 0.977851 -0.209301 0.000000 0.871589 -0.490238 0.000000 0.902849 -0.429957 0.000000 0.440764 -0.897623 0.000000 0.999180 -0.040496 0.000000 0.682511 -0.730875 0.000000 0.835626 -0.549300 0.000000 -0.596910 -0.802308 0.000000 0.699402 -0.714728 0.000000 0.421109 -0.907010 0.000000 -0.940873 -0.338759 0.000000 0.531161 -0.847271 0.000000 0.806451 -0.591301 0.000000 0.254993 -0.966943 0.000000 0.505252 -0.862972 0.000000 0.912932 -0.408111 0.000000 0.035310 -0.999376 0.000000 0.362586 -0.931950 0.000000 -0.208171 -0.978093 0.000000 0.133702 -0.991022 0.000000 0.445058 -0.895502 0.000000 0.349494 -0.936939 0.000000 -0.288179 -0.957576 0.000000 -0.430497 -0.902592 0.000000 -0.110590 -0.993866 0.000000 -0.640478 -0.767977 0.000000 -0.487278 -0.873247 0.000000 -0.841795 -0.539798 0.000000 0.999408 -0.034409 0.000000 -0.761946 -0.647640 0.000000 0.972876 -0.231328 0.000000 0.993728 -0.111820 0.000000 0.999112 0.042143 0.000000 -0.572628 -0.819815 0.000000 -0.568782 -0.822488 0.000000 -0.907789 -0.419426 0.000000 -0.927254 -0.374434 0.000000 0.083822 0.996481 0.000000 -0.367944 -0.929848 0.000000 -0.648086 -0.761567 0.000000 0.081510 -0.996673 0.000000 -0.973248 -0.229758 0.000000 0.959167 0.282840 0.000000 -0.389698 -0.920943 0.000000 0.590939 -0.806716 0.000000 0.993694 0.112124 0.000000 0.071686 -0.997427 0.000000 0.815249 0.579111 0.000000 -0.936265 0.351294 0.000000 -0.733896 0.679261 0.000000 0.376628 -0.926365 0.000000 0.521314 -0.853365 0.000000 -0.948560 0.316597 0.000000 0.508844 -0.860859 0.000000 0.711723 -0.702460 0.000000 0.999329 0.036615 0.000000 0.735102 -0.677956 0.000000 0.915957 -0.401276 0.000000 -0.521991 -0.852951 0.000000 -0.998159 0.060650 0.000000 0.213064 -0.977038 0.000000 0.369818 -0.929104 0.000000 -0.998299 -0.058300 0.000000 0.720801 -0.693143 0.000000 -0.471855 0.881676 0.000000 -0.971395 -0.237470 0.000000 0.859196 -0.511647 0.000000 0.281839 -0.959462 0.000000 -0.702414 0.711769 0.000000 0.083913 -0.996473 0.000000 -0.443622 -0.896214 0.000000 0.498850 -0.866688 0.000000 0.977369 -0.211542 0.000000 0.928858 -0.370436 0.000000 0.588073 -0.808808 0.000000 -0.857647 -0.514239 0.000000 0.271954 -0.962310 0.000000 0.411604 -0.911363 0.000000 0.124975 -0.992160 0.000000 -0.003336 -0.999994 0.000000 -0.100396 -0.994948 0.000000 0.045927 -0.998945 0.000000 -0.852100 -0.523379 0.000000 -0.236209 -0.971702 0.000000 -0.279369 -0.960184 0.000000 -0.859343 -0.511400 0.000000 -0.904603 -0.426256 0.000000 -0.116955 -0.993137 0.000000 -0.910478 -0.413558 0.000000 0.998533 -0.054138 0.000000 -0.803276 -0.595606 0.000000 -0.949627 -0.313382 0.000000 0.030536 -0.999534 0.000000 0.999992 -0.004026 0.000000 0.785304 -0.619110 0.000000 -0.776507 -0.630109 0.000000 -0.381563 -0.924343 0.000000 -0.674531 -0.738246 0.000000 -0.792207 -0.610253 0.000000 -0.887231 -0.461326 0.000000 -0.679572 0.733608 0.000000 -0.986984 -0.160816 0.000000 0.498331 -0.866987 0.000000 -0.636643 -0.771159 0.000000 0.186031 -0.982544 0.000000 0.749677 -0.661804 0.000000 -0.944790 -0.327678 0.000000 0.692082 -0.721819 0.000000 0.988633 -0.150352 0.000000 0.595629 0.803260 0.000000 0.875954 -0.482394 0.000000 -0.477047 0.878878 0.000000 -0.108660 -0.994079 0.000000 0.785903 0.618349 0.000000 0.830805 0.556564 0.000000 -0.626711 0.779251 0.000000 -0.979017 0.203779 0.000000 -0.132446 -0.991190 0.000000 -0.872392 0.488808 0.000000 0.961186 -0.275902 0.000000 0.439798 -0.898097 0.000000 -0.710156 0.704044 0.000000 0.468728 -0.883342 0.000000 0.859657 -0.510872 0.000000 -0.329144 0.944280 0.000000 0.005257 -0.999986 0.000000 0.988675 -0.150070 0.000000 -0.038972 -0.999240 0.000000 -0.920044 -0.391816 0.000000 -0.781430 -0.623993 0.000000 -0.973218 -0.229886 0.000000 0.898592 0.438785 0.000000 0.864087 -0.503343 0.000000 0.418511 -0.908212 0.000000 -0.541779 -0.840521 0.000000 0.991008 -0.133799 0.000000 0.065809 -0.997832 0.000000 0.955104 -0.296271 0.000000 0.309945 -0.950755 0.000000 0.864523 -0.502593 0.000000 0.090899 -0.995860 0.000000 -0.323372 -0.946272 0.000000 0.203394 -0.979097 0.000000 -0.704337 -0.709866 0.000000 0.016597 -0.999862 0.000000 -0.703714 -0.710483 0.000000 -0.062439 -0.998049 0.000000 0.001396 -0.999999 0.000000 -0.729439 -0.684045 0.000000 -0.767652 -0.640867 0.000000 -0.400929 -0.916109 0.000000 -0.805021 -0.593247 0.000000 -0.710140 -0.704061 0.000000 -0.541036 -0.841000 0.000000 -0.032305 -0.999478 0.000000 -0.713368 -0.700790 0.000000 -0.789940 -0.613185 0.000000 -0.675809 -0.737077 0.000000 -0.212771 -0.977102 0.000000 -0.430954 -0.902374 0.000000 0.932184 -0.361985 0.000000 0.934820 -0.355122 0.000000 -0.791067 -0.611729 0.000000 -0.602392 -0.798200 0.000000 -0.948784 -0.315926 0.000000 -0.775779 -0.631005 0.000000 -0.988315 -0.152426 0.000000 -0.733793 0.679373 0.000000 -0.207550 -0.978224 0.000000 -0.131194 0.991357 0.000000 0.870122 0.492836 0.000000 -0.294058 0.955787 0.000000 -0.631493 -0.775382 0.000000 -0.678694 0.734421 0.000000 0.867195 -0.497968 0.000000 -0.609973 -0.792422 0.000000 -0.340609 0.940205 0.000000 -0.492546 0.870286 0.000000 0.378883 0.925445 0.000000 0.749209 -0.662333 0.000000 0.438135 -0.898909 0.000000 0.999903 -0.013917 0.000000 0.736562 0.676370 0.000000 0.853683 0.520793 0.000000 -0.109182 -0.994022 0.000000 -0.441246 -0.897386 0.000000 -0.674849 -0.737956 0.000000 0.280609 -0.959822 0.000000 0.672519 0.740079 0.000000 -0.302331 -0.953203 0.000000 0.831736 -0.555172 0.000000 0.649708 0.760184 0.000000 -0.892254 -0.451535 0.000000 -0.786247 -0.617913 0.000000 0.940472 -0.339871 0.000000 -0.849805 -0.527098 0.000000 0.997561 -0.069804 0.000000 -0.999796 0.020198 0.000000 -0.613249 -0.789889 0.000000 -0.314888 0.949129 0.000000 -0.728735 -0.684796 0.000000 0.030163 -0.999545 0.000000 -0.472470 -0.881347 0.000000 0.828811 -0.559529 0.000000 -0.828419 -0.560108 0.000000 -0.117118 -0.993118 0.000000 0.415874 -0.909422 0.000000 0.985650 -0.168801 0.000000 -0.280655 -0.959809 0.000000 0.023228 -0.999730 0.000000 -0.145188 -0.989404 0.000000 -0.997070 -0.076493 0.000000 0.763844 -0.645401 0.000000 -0.750872 -0.660448 0.000000 -0.127761 -0.991805 0.000000 -0.613427 -0.789751 0.000000 -0.767887 -0.640586 0.000000 -0.847222 -0.531238 0.000000 -0.713712 -0.700439 0.000000 0.909076 -0.416630 0.000000 -0.977891 -0.209116 0.000000 0.141705 -0.989909 0.000000 -0.843277 -0.537480 0.000000 -0.809965 -0.586478 0.000000 -0.950618 -0.310364 0.000000 0.834375 -0.551198 0.000000 -0.352566 -0.935787 0.000000 -0.979921 -0.199388 0.000000 -0.966690 -0.255950 0.000000 -0.571649 -0.820499 0.000000 -0.663865 0.747852 0.000000 0.865345 0.501176 0.000000 -0.697245 -0.716833 0.000000 -0.135240 -0.990813 0.000000 0.217059 0.976158 0.000000 0.956517 -0.291677 0.000000 -0.957623 0.288025 0.000000 -0.687658 0.726035 0.000000 0.994116 -0.108323 0.000000 0.519028 0.854757 0.000000 -0.407237 -0.913322 0.000000 0.173444 -0.984844 0.000000 0.597898 -0.801572 0.000000 0.319264 0.947666 0.000000 0.570029 0.821625 0.000000 0.445284 0.895389 0.000000 -0.453187 -0.891416 0.000000 -0.721068 0.692864 0.000000 0.236471 0.971639 0.000000 0.990852 -0.134951 0.000000 0.705039 -0.709169 0.000000 0.855430 -0.517918 0.000000 0.529464 -0.848332 0.000000 0.713070 -0.701093 0.000000 0.241945 0.970290 0.000000 0.961836 0.273627 0.000000 -0.818158 0.574994 0.000000 -0.823458 0.567377 0.000000 0.253577 -0.967315 0.000000 -0.461268 -0.887261 0.000000 0.759413 -0.650609 0.000000 0.751123 -0.660162 0.000000 -0.949968 -0.312347 0.000000 -0.129190 -0.991620 0.000000 -0.386500 -0.922289 0.000000 -0.771082 -0.636736 0.000000 -0.762094 -0.647466 0.000000 0.760674 -0.649134 0.000000 0.146236 -0.989250 0.000000 0.998436 -0.055898 0.000000 0.711796 -0.702387 0.000000 0.996771 -0.080293 0.000000 -0.990607 -0.136742 0.000000 -0.948724 -0.316106 0.000000 -0.666645 -0.745375 0.000000 0.435925 -0.899983 0.000000 -0.993382 -0.114861 0.000000 -0.959426 -0.281961 0.000000 0.968141 -0.250405 0.000000 -0.592161 -0.805820 0.000000 0.439714 -0.898138 0.000000 -0.951817 -0.306667 0.000000 -0.915175 -0.403058 0.000000 -0.710366 -0.703832 0.000000 -0.662122 -0.749396 0.000000 0.927332 -0.374240 0.000000 -0.720912 -0.693027 0.000000 -0.345117 -0.938560 0.000000 -0.937727 -0.347372 0.000000 -0.524495 -0.851413 0.000000 0.899443 -0.437037 0.000000 -0.732930 -0.680305 0.000000 -0.174329 -0.984688 0.000000 -0.862478 -0.506095 0.000000 -0.882152 -0.470964 0.000000 -0.786250 -0.617908 0.000000 -0.484461 -0.874813 0.000000 0.934526 -0.355894 0.000000 -0.829325 -0.558766 0.000000 -0.954333 -0.298745 0.000000 -0.658843 -0.752280 0.000000 -0.486074 -0.873917 0.000000 -0.650667 -0.759363 0.000000 -0.052958 -0.998597 0.000000 0.477604 -0.878575 0.000000 -0.660369 -0.750941 0.000000 -0.586278 -0.810110 0.000000 0.999235 -0.039104 0.000000 0.460302 0.887762 0.000000 -0.969296 0.245897 0.000000 0.933341 -0.358992 0.000000 0.828332 -0.560237 0.000000 -0.664309 -0.747458 0.000000 0.796861 0.604162 0.000000 0.473081 -0.881019 0.000000 0.309769 0.950812 0.000000 -0.776667 0.629912 0.000000 0.162705 -0.986675 0.000000 -0.450726 -0.892662 0.000000 -0.922546 0.385886 0.000000 0.693169 0.720775 0.000000 -0.998715 -0.050681 0.000000 -0.224268 0.974527 0.000000 0.730651 -0.682751 0.000000 -0.044610 0.999004 0.000000 0.694515 -0.719478 0.000000 -0.384329 -0.923196 0.000000 -0.669353 0.742945 0.000000 0.904220 -0.427066 0.000000 0.104823 -0.994491 0.000000 -0.625631 -0.780119 0.000000 -0.696367 0.717686 0.000000 0.755984 0.654590 0.000000 0.685951 -0.727648 0.000000 -0.728209 -0.685355 0.000000 0.758238 -0.651978 0.000000 -0.644567 -0.764548 0.000000 0.040592 -0.999176 0.000000 0.966075 0.258260 0.000000 -0.308538 -0.951212 0.000000 0.873345 -0.487103 0.000000 0.768595 -0.639736 0.000000 -0.861424 -0.507887 0.000000 0.146371 -0.989230 0.000000 0.841687 -0.539965 0.000000 0.262270 -0.964995 0.000000 0.649895 -0.760024 0.000000 -0.941749 -0.336317 0.000000 -0.087324 -0.996180 0.000000 0.661961 -0.749538 0.000000 -0.971994 -0.235005 0.000000 0.701172 -0.712992 0.000000 -0.971135 -0.238530 0.000000 -0.254190 -0.967154 0.000000 -0.189068 -0.981964 0.000000 0.899576 -0.436764 0.000000 -0.952706 -0.303892 0.000000 -0.859340 -0.511405 0.000000 -0.882633 -0.470063 0.000000 -0.916680 -0.399621 0.000000 0.909225 -0.416306 0.000000 -0.902657 -0.430360 0.000000 -0.057692 -0.998334 0.000000 -0.164887 -0.986312 0.000000 -0.818970 -0.573837 0.000000 0.048899 -0.998804 0.000000 -0.946029 -0.324083 0.000000 -0.928085 -0.372369 0.000000 -0.460722 -0.887545 0.000000 0.807309 -0.590128 0.000000 -0.982263 -0.187507 0.000000 -0.878649 -0.477469 0.000000 -0.988079 -0.153950 0.000000 0.742617 -0.669717 0.000000 0.933240 -0.359254 0.000000 0.705775 -0.708436 0.000000 -0.874350 -0.485296 0.000000 -0.967880 -0.251412 0.000000 -0.758227 -0.651991 0.000000 -0.608144 -0.793827 0.000000 -0.999913 0.013199 0.000000 -0.579081 0.815270 0.000000 0.967068 0.254520 0.000000 0.825512 0.564385 0.000000 -0.907889 0.419211 0.000000 -0.335196 0.942148 0.000000 0.494447 0.869208 0.000000 -0.960357 0.278774 0.000000 -0.008697 -0.999962 0.000000 0.191741 0.981446 0.000000 0.944120 -0.329601 0.000000 -0.530446 -0.847719 0.000000 -0.652266 -0.757990 0.000000 0.821302 -0.570493 0.000000 0.996502 0.083567 0.000000 0.061812 -0.998088 0.000000 0.417439 -0.908705 0.000000 -0.715613 0.698497 0.000000 -0.071255 0.997458 0.000000 0.474729 -0.880132 0.000000 -0.947950 -0.318419 0.000000 0.769234 -0.638968 0.000000 -0.933397 -0.358845 0.000000 0.529480 -0.848323 0.000000 -0.142498 -0.989795 0.000000 -0.771698 -0.635989 0.000000 0.758772 -0.651356 0.000000 0.935122 -0.354325 0.000000 0.063757 -0.997965 0.000000 0.335568 0.942016 0.000000 0.642760 -0.766067 0.000000 -0.998527 -0.054254 0.000000 0.439899 -0.898047 0.000000 0.753039 -0.657976 0.000000 0.557270 -0.830331 0.000000 0.714676 -0.699455 0.000000 0.992361 -0.123371 0.000000 0.999807 -0.019652 0.000000 0.407322 -0.913285 0.000000 0.885845 -0.463981 0.000000 0.368484 -0.929634 0.000000 0.591263 -0.806479 0.000000 0.572085 -0.820194 0.000000 0.793157 -0.609017 0.000000 -0.776567 -0.630034 0.000000 0.774649 -0.632391 0.000000 0.879640 -0.475639 0.000000 0.753697 -0.657222 0.000000 -0.944411 -0.328766 0.000000 0.186786 -0.982401 0.000000 -0.411702 -0.911319 0.000000 -0.968307 -0.249761 0.000000 -0.957053 -0.289913 0.000000 0.283493 -0.958974 0.000000 -0.774910 -0.632072 0.000000 -0.850314 -0.526276 0.000000 0.988756 -0.149540 0.000000 0.805249 -0.592937 0.000000 -0.834998 -0.550253 0.000000 0.115681 -0.993286 0.000000 -0.859283 -0.511501 0.000000 0.155361 -0.987858 0.000000 0.923923 -0.382580 0.000000 -0.959269 -0.282496 0.000000 -0.882775 -0.469796 0.000000 0.360487 -0.932764 0.000000 -0.944951 -0.327211 0.000000 -0.176869 -0.984234 0.000000 0.601068 -0.799198 0.000000 -0.425900 -0.904770 0.000000 0.492146 -0.870513 0.000000 -0.859719 -0.510768 0.000000 -0.961258 -0.275651 0.000000 -0.557066 -0.830468 0.000000 -0.202811 -0.979218 0.000000 0.050621 -0.998718 0.000000 -0.323766 0.946137 0.000000 0.210049 -0.977691 0.000000 0.331001 0.943630 0.000000 0.068813 0.997630 0.000000 -0.380026 0.924976 0.000000 0.373409 0.927667 0.000000 0.957105 0.289743 0.000000 0.999998 -0.001750 0.000000 -0.808876 0.587979 0.000000 -0.970603 0.240688 0.000000 0.116169 0.993229 0.000000 -0.234030 0.972229 0.000000 0.796775 0.604277 0.000000 -0.076942 0.997036 0.000000 0.493003 -0.870028 0.000000 0.498441 0.866924 0.000000 0.627399 -0.778698 0.000000 -0.767197 0.641412 0.000000 0.628901 0.777486 0.000000 -0.770576 0.637349 0.000000 0.411931 0.911215 0.000000 0.639214 0.769029 0.000000 0.438002 -0.898974 0.000000 -0.808130 -0.589004 0.000000 -0.745279 -0.666752 0.000000 0.969605 -0.244676 0.000000 0.942649 -0.333785 0.000000 -0.811581 -0.584240 0.000000 -0.999581 -0.028944 0.000000 0.850610 -0.525797 0.000000 -0.966989 -0.254818 0.000000 0.989223 -0.146420 0.000000 0.911892 -0.410430 0.000000 -0.560029 -0.828473 0.000000 0.957299 -0.289101 0.000000 -0.153894 -0.988087 0.000000 0.863680 -0.504041 0.000000 0.868750 -0.495251 0.000000 0.694754 -0.719248 0.000000 0.821930 -0.569588 0.000000 -0.980746 -0.195290 0.000000 0.410327 -0.911938 0.000000 0.488568 -0.872526 0.000000 0.792506 -0.609864 0.000000 -0.994584 -0.103937 0.000000 0.971582 -0.236704 0.000000 0.982437 -0.186594 0.000000 0.377217 -0.926125 0.000000 0.378234 -0.925710 0.000000 -0.046961 -0.998897 0.000000 -0.662184 -0.749341 0.000000 0.919310 0.393534 0.000000 0.137147 -0.990551 0.000000 0.662737 -0.748852 0.000000 0.061322 -0.998118 0.000000 -0.207975 -0.978134 0.000000 0.521059 -0.853521 0.000000 -0.788863 -0.614569 0.000000 0.990522 -0.137352 0.000000 0.993574 -0.113185 0.000000 -0.149208 -0.988806 0.000000 -0.305290 -0.952259 0.000000 -0.937134 -0.348969 0.000000 -0.995427 -0.095530 0.000000 0.245504 -0.969396 0.000000 -0.869996 -0.493059 0.000000 0.939987 -0.341210 0.000000 -0.999918 -0.012768 0.000000 -0.433708 -0.901054 0.000000 0.935880 -0.352320 0.000000 -0.879403 -0.476078 0.000000 -0.091209 0.995832 0.000000 -0.694283 -0.719703 0.000000 0.702719 0.711467 0.000000 -0.684781 -0.728749 0.000000 0.997206 0.074706 0.000000 -0.051599 -0.998668 0.000000 -0.982304 -0.187291 0.000000 -0.660337 0.750970 0.000000 -0.617445 0.786614 0.000000 0.645734 -0.763562 0.000000 0.499603 -0.866255 0.000000 -0.670805 0.741634 0.000000 -0.087465 0.996168 0.000000 -0.838407 0.545044 0.000000 -0.886471 0.462785 0.000000 0.255641 0.966772 0.000000 0.555360 0.831610 0.000000 -0.705084 0.709124 0.000000 -0.719939 0.694038 0.000000 0.817728 0.575605 0.000000 0.507575 0.861608 0.000000 -0.393109 -0.919492 0.000000 -0.625111 0.780536 0.000000 0.931175 0.364573 0.000000 -0.814744 -0.579821 0.000000 0.156931 0.987610 0.000000 -0.669484 0.742826 0.000000 -0.943058 0.332628 0.000000 0.526638 -0.850089 0.000000 0.635980 0.771706 0.000000 0.726462 -0.687207 0.000000 0.297026 -0.954869 0.000000 0.194785 0.980846 0.000000 -0.753997 -0.656878 0.000000 0.999788 -0.020613 0.000000 -0.987201 -0.159484 0.000000 0.353036 -0.935610 0.000000 -0.312507 -0.949916 0.000000 0.687643 -0.726049 0.000000 -0.265208 -0.964191 0.000000 -0.968140 0.250410 0.000000 -0.990591 -0.136858 0.000000 0.997469 -0.071101 0.000000 -0.885788 -0.464091 0.000000 0.763184 -0.646182 0.000000 0.655474 -0.755217 0.000000 -0.885819 -0.464031 0.000000 -0.926517 0.376254 0.000000 0.591227 -0.806505 0.000000 0.914553 -0.404466 0.000000 0.211090 -0.977467 0.000000 0.931260 -0.364356 0.000000 0.198675 -0.980065 0.000000 -0.839754 -0.542967 0.000000 -0.928113 -0.372299 0.000000 0.979083 -0.203460 0.000000 -0.874866 -0.484365 0.000000 0.532993 -0.846119 0.000000 0.506815 0.862055 0.000000 0.905794 0.423719 0.000000 -0.075323 -0.997159 0.000000 0.508828 0.860868 0.000000 -0.553325 -0.832966 0.000000 -0.999652 -0.026391 0.000000 0.311903 0.950114 0.000000 0.877760 -0.479101 0.000000 -0.971467 0.237175 0.000000 -0.734342 -0.678780 0.000000 -0.956960 -0.290220 0.000000 -0.035275 -0.999378 0.000000 0.131427 -0.991326 0.000000 -0.744624 -0.667484 0.000000 -0.962359 -0.271783 0.000000 0.881619 -0.471961 0.000000 0.969279 -0.245964 0.000000 0.176563 -0.984289 0.000000 -0.689126 -0.724642 0.000000 0.951228 -0.308489 0.000000 -0.789471 0.613788 0.000000 -0.803324 -0.595542 0.000000 0.949684 -0.313210 0.000000 -0.779940 -0.625854 0.000000 -0.823896 0.566741 0.000000 0.793015 0.609203 0.000000 -0.952697 -0.303921 0.000000 0.106465 -0.994316 0.000000 0.999991 0.004303 0.000000 -0.077216 -0.997014 0.000000 -0.760753 -0.649041 0.000000 0.997307 -0.073339 0.000000 -0.239080 0.971000 0.000000 0.127171 -0.991881 0.000000 0.641771 0.766896 0.000000 -0.077933 0.996959 0.000000 -0.986928 0.161161 0.000000 -0.500657 0.865646 0.000000 -0.404246 -0.914650 0.000000 -0.999995 0.003136 0.000000 -0.100783 0.994908 0.000000 -0.988828 0.149059 0.000000 0.423495 -0.905899 0.000000 0.320329 0.947306 0.000000 0.620254 0.784401 0.000000 -0.571328 -0.820722 0.000000 0.951413 0.307919 0.000000 -0.190243 -0.981737 0.000000 0.167450 -0.985881 0.000000 0.641305 -0.767286 0.000000 0.358662 -0.933467 0.000000 -0.257088 0.966388 0.000000 0.849030 -0.528345 0.000000 -0.206260 0.978497 0.000000 -0.158914 -0.987292 0.000000 -0.682114 -0.731246 0.000000 -0.563949 -0.825810 0.000000 -0.786140 -0.618048 0.000000 0.946259 -0.323409 0.000000 -0.033345 -0.999444 0.000000 0.699594 -0.714540 0.000000 0.882293 -0.470700 0.000000 0.860444 -0.509545 0.000000 0.970569 -0.240823 0.000000 -0.452765 -0.891630 0.000000 -0.913296 -0.407297 0.000000 -0.999957 -0.009220 0.000000 -0.760760 -0.649033 0.000000 0.988027 -0.154282 0.000000 -0.613389 -0.789781 0.000000 0.998807 -0.048830 0.000000 -0.944349 -0.328945 0.000000 0.268815 0.963192 0.000000 0.814552 -0.580091 0.000000 0.916792 -0.399364 0.000000 0.068305 -0.997664 0.000000 -0.020372 -0.999792 0.000000 0.966424 -0.256951 0.000000 0.196125 -0.980579 0.000000 -0.794588 -0.607149 0.000000 0.965255 -0.261311 0.000000 -0.297557 0.954704 0.000000 0.984035 -0.177974 0.000000 0.396034 -0.918236 0.000000 -0.114187 0.993459 0.000000 0.568967 0.822360 0.000000 0.996765 -0.080377 0.000000 0.964367 -0.264567 0.000000 0.157163 -0.987573 0.000000 -0.959874 -0.280430 0.000000 0.951652 -0.307179 0.000000 -0.889453 -0.457026 0.000000 -0.435704 -0.900090 0.000000 -0.936456 -0.350786 0.000000 0.657342 -0.753592 0.000000 0.941905 -0.335879 0.000000 -0.761251 -0.648457 0.000000 0.980610 -0.195970 0.000000 -0.999907 -0.013660 0.000000 -0.957119 -0.289695 0.000000 -0.999755 -0.022140 0.000000 -0.650388 -0.759602 0.000000 0.705939 -0.708273 0.000000 -0.944359 -0.328916 0.000000 -0.479799 -0.877379 0.000000 0.933458 -0.358686 0.000000 -0.617778 -0.786353 0.000000 0.070724 0.997496 0.000000 -0.993716 -0.111930 0.000000 0.445133 0.895464 0.000000 -0.385016 -0.922910 0.000000 0.865086 0.501624 0.000000 0.992554 -0.121802 0.000000 0.669247 0.743040 0.000000 0.987290 0.158927 0.000000 0.135700 -0.990750 0.000000 0.895067 0.445931 0.000000 0.840014 0.542565 0.000000 0.222702 0.974887 0.000000 -0.656779 -0.754083 0.000000 0.904655 0.426144 0.000000 0.094941 0.995483 0.000000 -0.547380 0.836884 0.000000 -0.990947 0.134256 0.000000 0.053683 -0.998558 0.000000 -0.947171 0.320730 0.000000 0.566971 0.823738 0.000000 -0.684483 -0.729029 0.000000 0.132199 -0.991223 0.000000 -0.714565 0.699569 0.000000 -0.208027 -0.978123 0.000000 0.296860 -0.954921 0.000000 -0.519956 -0.854193 0.000000 -0.472270 0.881454 0.000000 0.241302 -0.970450 0.000000 -0.418116 -0.908394 0.000000 -0.912640 -0.408765 0.000000 0.876795 -0.480865 0.000000 -0.645821 -0.763489 0.000000 0.863536 -0.504287 0.000000 -0.260178 -0.965561 0.000000 0.872532 -0.488556 0.000000 -0.220853 -0.975307 0.000000 0.865704 -0.500556 0.000000 -0.127212 -0.991876 0.000000 0.610448 -0.792057 0.000000 0.995285 -0.096992 0.000000 -0.999589 0.028654 0.000000 -0.185752 -0.982597 0.000000 -0.765345 -0.643620 0.000000 0.948292 -0.317398 0.000000 0.218704 -0.975791 0.000000 0.340175 -0.940362 0.000000 0.372828 -0.927901 0.000000 0.929166 -0.369663 0.000000 0.876539 -0.481331 0.000000 0.834564 -0.550911 0.000000 0.773149 -0.634224 0.000000 0.742333 -0.670031 0.000000 0.902744 -0.430178 0.000000 0.977717 -0.209929 0.000000 -0.196002 -0.980603 0.000000 0.631208 -0.775614 0.000000 -0.150826 -0.988560 0.000000 -0.990720 0.135920 0.000000 -0.889807 -0.456336 0.000000 -0.958647 -0.284598 0.000000 0.280575 -0.959832 0.000000 -0.999251 -0.038706 0.000000 0.648964 -0.760819 0.000000 0.859643 -0.510894 0.000000 0.991212 -0.132281 0.000000 -0.859097 -0.511812 0.000000 -0.196341 0.980536 0.000000 0.492793 -0.870146 0.000000 -0.759092 -0.650983 0.000000 0.862940 -0.505307 0.000000 -0.712113 -0.702065 0.000000 -0.656569 -0.754266 0.000000 0.210502 -0.977593 0.000000 -0.767425 0.641138 0.000000 0.574010 -0.818848 0.000000 -0.918121 -0.396299 0.000000 0.675159 -0.737672 0.000000 -0.971865 -0.235537 0.000000 0.724255 -0.689532 0.000000 0.744389 -0.667746 0.000000 -0.999101 0.042397 0.000000 0.470682 -0.882303 0.000000 0.730386 0.683035 0.000000 0.885784 0.464099 0.000000 -0.996911 -0.078540 0.000000 0.654945 -0.755676 0.000000 -0.532952 -0.846145 0.000000 0.971742 0.236047 0.000000 -0.099227 0.995065 0.000000 0.152565 -0.988293 0.000000 -0.375222 -0.926935 0.000000 -0.876755 0.480937 0.000000 0.890525 0.454934 0.000000 -0.973658 0.228013 0.000000 -0.106021 -0.994364 0.000000 0.482221 -0.876050 0.000000 0.345486 0.938424 0.000000 -0.540416 0.841398 0.000000 -0.385900 -0.922541 0.000000 0.598750 -0.800936 0.000000 0.989419 0.145089 0.000000 -0.607996 0.793940 0.000000 -0.728339 -0.685217 0.000000 0.508215 0.861230 0.000000 -0.051410 -0.998678 0.000000 0.470039 0.882646 0.000000 -0.713259 -0.700901 0.000000 0.750247 -0.661157 0.000000 0.282685 -0.959213 0.000000 0.838964 0.544187 0.000000 -0.481578 -0.876403 0.000000 0.636394 -0.771364 0.000000 -0.642033 -0.766677 0.000000 -0.949082 -0.315030 0.000000 0.479898 -0.877324 0.000000 -0.551002 -0.834504 0.000000 0.842850 -0.538148 0.000000 0.998155 -0.060725 0.000000 -0.360922 -0.932596 0.000000 0.800221 -0.599705 0.000000 0.973535 -0.228540 0.000000 0.997811 -0.066128 0.000000 0.924036 -0.382306 0.000000 0.649166 -0.760647 0.000000 -0.965369 -0.260887 0.000000 -0.860109 -0.510110 0.000000 0.964643 -0.263561 0.000000 0.006690 -0.999978 0.000000 -0.871182 -0.490960 0.000000 0.929993 -0.367578 0.000000 -0.991131 -0.132888 0.000000 0.860265 -0.509846 0.000000 -0.642696 -0.766121 0.000000 0.457693 -0.889110 0.000000 0.901776 -0.432204 0.000000 0.497644 -0.867381 0.000000 -0.717784 -0.696266 0.000000 -0.969704 -0.244283 0.000000 -0.461452 -0.887165 0.000000 -0.874737 -0.484598 0.000000 -0.801357 -0.598186 0.000000 -0.800007 -0.599991 0.000000 0.998751 -0.049970 0.000000 0.964963 -0.262385 0.000000 0.931139 -0.364663 0.000000 0.411466 -0.911425 0.000000 -0.830836 -0.556517 0.000000 0.979344 -0.202200 0.000000 -0.112383 0.993665 0.000000 0.936844 -0.349748 0.000000 0.588279 -0.808658 0.000000 -0.713862 -0.700286 0.000000 -0.115573 -0.993299 0.000000 0.438626 -0.898670 0.000000 0.563090 -0.826396 0.000000 -0.787196 -0.616703 0.000000 0.245739 -0.969336 0.000000 0.100118 -0.994976 0.000000 0.716115 -0.697983 0.000000 0.725317 -0.688415 0.000000 0.889662 0.456619 0.000000 -0.563774 -0.825929 0.000000 -0.970736 -0.240150 0.000000 0.665414 -0.746474 0.000000 0.268570 0.963260 0.000000 0.2