<?xml version='1.0'?>
<VTKFile type='UnstructuredGrid' version='0.1' byte_order='LittleEndian'><UnstructuredGrid>
<Piece NumberOfPoints='0' NumberOfCells='0'>
<PointData Scalars='acoustic_energy acoustic_magnitude acoustic_fracture_energy acoustic_event_mode'>
<DataArray type='Float32' Name='acoustic_energy' NumberOfComponents='1' format='ascii'>

</DataArray>
<DataArray type='Float32' Name='acoustic_magnitude' NumberOfComponents='1' format='ascii'>

</DataArray>
<DataArray type='Float32' Name='acoustic_fracture_energy' NumberOfComponents='1' format='ascii'>

</DataArray>
<DataArray type='Float32' Name='acoustic_event_mode' NumberOfComponents='1' format='ascii'>

</DataArray>
</PointData>
<CellData>

</CellData>
<Points>
<DataArray type='Float32' NumberOfComponents='3' format='ascii'>

</DataArray>
</Points>
<Cells><DataArray type='Int32' Name='connectivity'/><DataArray type='Int32' Name='offsets'/><DataArray type='UInt8' Name='types'/></Cells>
</Piece>
</UnstructuredGrid>
</VTKFile>