<?xml version='1.0'?>
<VTKFile type='UnstructuredGrid' version='0.1' byte_order='LittleEndian'><UnstructuredGrid>
<Piece NumberOfPoints='3000' NumberOfCells='0'>
<PointData Vectors='principal_stress_direction_1 principal_stress_direction_2 principal_stress_direction_3'>
<DataArray type='Float32' Name='principal_stress_direction_1' NumberOfComponents='3' format='ascii'>
-0.980566 0.196189 0.000000 -0.883793 0.467878 0.000000 -0.995163 -0.098235 0.000000 0.860542 -0.509379 0.000000 0.288045 -0.957617 0.000000 0.557878 -0.829923 0.000000 -0.241074 -0.970507 0.000000 0.751250 -0.660017 0.000000 0.226716 -0.973961 0.000000 -0.805516 -0.592574 0.000000 0.795706 -0.605683 0.000000 0.979296 0.202435 0.000000 0.502695 0.864464 0.000000 0.931170 0.364584 0.000000 -0.997958 0.063880 0.000000 -0.999991 0.004349 0.000000 -0.784082 0.620658 0.000000 -0.568452 0.822716 0.000000 -0.184370 0.982857 0.000000 0.926733 0.375720 0.000000 0.150311 0.988639 0.000000 0.901416 -0.432954 0.000000 -0.979238 0.202714 0.000000 -0.353077 0.935594 0.000000 0.872816 -0.488049 0.000000 0.737894 -0.674917 0.000000 0.748522 -0.663110 0.000000 -0.055498 -0.998459 0.000000 -0.282455 -0.959281 0.000000 0.372892 -0.927875 0.000000 -0.146805 -0.989165 0.000000 0.098683 -0.995119 0.000000 -0.588465 0.808523 0.000000 0.909253 -0.416244 0.000000 -0.711339 -0.702849 0.000000 -0.984023 -0.178039 0.000000 0.656685 -0.754165 0.000000 -0.973065 -0.230532 0.000000 -0.664028 0.747708 0.000000 0.947821 0.318803 0.000000 0.274344 0.961631 0.000000 -0.738630 0.674111 0.000000 -0.990333 0.138708 0.000000 0.725144 0.688598 0.000000 0.572925 0.819608 0.000000 -0.818320 0.574763 0.000000 -0.832801 -0.553572 0.000000 0.973634 0.228116 0.000000 0.787530 -0.616277 0.000000 -0.968532 -0.248891 0.000000 -0.809528 -0.587082 0.000000 -0.917657 -0.397375 0.000000 -0.989584 -0.143954 0.000000 0.933008 -0.359854 0.000000 0.950321 -0.311272 0.000000 0.944161 -0.329483 0.000000 0.943693 -0.330823 0.000000 0.800779 -0.598961 0.000000 0.391834 -0.920036 0.000000 -0.876414 -0.481558 0.000000 0.248893 -0.968531 0.000000 0.251940 -0.967743 0.000000 0.137994 -0.990433 0.000000 -0.416175 -0.909285 0.000000 0.030016 -0.999549 0.000000 -0.019889 -0.999802 0.000000 -0.825298 -0.564697 0.000000 -0.950868 -0.309598 0.000000 -0.025370 -0.999678 0.000000 -0.788027 -0.615641 0.000000 -0.999896 -0.014412 0.000000 -0.962368 -0.271748 0.000000 0.997035 -0.076955 0.000000 -0.922356 0.386341 0.000000 -0.692744 -0.721183 0.000000 0.867963 0.496629 0.000000 -0.382724 -0.923863 0.000000 0.942329 0.334688 0.000000 -0.222413 0.974952 0.000000 -0.321662 0.946854 0.000000 0.821924 0.569597 0.000000 -0.788479 0.615062 0.000000 0.951145 0.308744 0.000000 -0.164315 0.986408 0.000000 0.367208 0.930139 0.000000 0.963466 -0.267832 0.000000 -0.853916 0.520410 0.000000 -0.994136 -0.108135 0.000000 0.842558 -0.538606 0.000000 0.868451 -0.495774 0.000000 -0.964459 -0.264232 0.000000 -0.992724 -0.120415 0.000000 0.728075 -0.685497 0.000000 0.729668 -0.683801 0.000000 0.808686 -0.588240 0.000000 0.711848 -0.702333 0.000000 0.717066 -0.697006 0.000000 -0.660145 -0.751138 0.000000 0.287717 -0.957716 0.000000 0.648319 -0.761369 0.000000 0.425908 -0.904766 0.000000 0.236482 -0.971636 0.000000 -0.457271 -0.889327 0.000000 0.090616 -0.995886 0.000000 -0.013212 -0.999913 0.000000 0.197930 -0.980216 0.000000 -0.064117 -0.997942 0.000000 0.566757 -0.823885 0.000000 -0.247591 -0.968865 0.000000 -0.913309 -0.407268 0.000000 -0.064133 -0.997941 0.000000 0.997067 -0.076534 0.000000 -0.936839 -0.349760 0.000000 -0.989473 -0.144718 0.000000 0.999713 -0.023970 0.000000 -0.939953 -0.341303 0.000000 -0.893963 -0.448140 0.000000 -0.999991 -0.004331 0.000000 -0.836177 -0.548459 0.000000 0.660487 0.750838 0.000000 -0.975907 0.218188 0.000000 0.970643 0.240525 0.000000 -0.997990 -0.063374 0.000000 0.900655 0.434536 0.000000 0.030704 0.999529 0.000000 -0.773187 -0.634178 0.000000 -0.751964 -0.659204 0.000000 -0.868891 0.495003 0.000000 -0.550248 0.835001 0.000000 -0.699536 0.714597 0.000000 0.982051 0.188616 0.000000 0.868792 -0.495177 0.000000 -0.742505 0.669840 0.000000 0.660537 -0.750793 0.000000 -0.968852 -0.247639 0.000000 0.909498 -0.415708 0.000000 0.972593 -0.232512 0.000000 -0.956487 -0.291776 0.000000 0.841477 -0.540294 0.000000 0.991655 -0.128924 0.000000 0.948156 -0.317806 0.000000 0.712940 -0.701225 0.000000 -0.955112 -0.296246 0.000000 0.614495 -0.788920 0.000000 0.869575 -0.493802 0.000000 0.999269 -0.038240 0.000000 0.348858 -0.937176 0.000000 0.425515 -0.904952 0.000000 0.172665 -0.984981 0.000000 0.808860 -0.588001 0.000000 0.602373 -0.798214 0.000000 0.166628 -0.986020 0.000000 0.086984 -0.996210 0.000000 0.214029 -0.976827 0.000000 -0.425946 -0.904749 0.000000 -0.174688 -0.984624 0.000000 0.071704 -0.997426 0.000000 -0.051928 -0.998651 0.000000 -0.241669 -0.970359 0.000000 -0.126452 -0.991973 0.000000 -0.757773 -0.652518 0.000000 -0.050593 -0.998719 0.000000 -0.762287 -0.647239 0.000000 -0.970940 -0.239325 0.000000 -0.674831 -0.737973 0.000000 -0.856526 -0.516104 0.000000 -0.949642 -0.313336 0.000000 -0.842815 -0.538204 0.000000 -0.015941 -0.999873 0.000000 -0.999720 -0.023645 0.000000 -0.744751 0.667342 0.000000 0.853040 0.521846 0.000000 -0.684172 -0.729321 0.000000 -0.816924 0.576745 0.000000 -0.847066 -0.531488 0.000000 -0.408181 -0.912901 0.000000 0.312142 0.950035 0.000000 -0.760169 -0.649725 0.000000 -0.675989 0.736912 0.000000 0.930231 0.366973 0.000000 -0.978852 0.204570 0.000000 0.947141 -0.320818 0.000000 -0.748869 0.662718 0.000000 0.378260 -0.925699 0.000000 0.917078 -0.398708 0.000000 0.599630 -0.800278 0.000000 -0.466348 0.884602 0.000000 0.817747 -0.575578 0.000000 0.905344 -0.424679 0.000000 0.999992 -0.003968 0.000000 0.997831 -0.065827 0.000000 0.893809 -0.448449 0.000000 0.959277 -0.282466 0.000000 0.991552 -0.129714 0.000000 0.997212 -0.074625 0.000000 0.906668 -0.421845 0.000000 0.749634 -0.661852 0.000000 0.345011 -0.938599 0.000000 0.608030 -0.793914 0.000000 -0.582369 -0.812925 0.000000 0.828292 -0.560297 0.000000 -0.992440 -0.122730 0.000000 -0.330410 -0.943837 0.000000 0.572226 -0.820096 0.000000 0.497308 -0.867574 0.000000 -0.229016 -0.973423 0.000000 0.591519 -0.806291 0.000000 0.316359 -0.948639 0.000000 -0.262851 -0.964837 0.000000 0.324660 -0.945831 0.000000 0.186377 -0.982478 0.000000 0.060923 -0.998142 0.000000 -0.717157 -0.696912 0.000000 0.108106 -0.994139 0.000000 -0.819555 -0.573001 0.000000 -0.505642 -0.862744 0.000000 0.401268 -0.915961 0.000000 -0.955986 -0.293413 0.000000 -0.943210 -0.332196 0.000000 -0.894055 -0.447958 0.000000 -0.514890 -0.857256 0.000000 -0.946236 -0.323477 0.000000 -0.391570 -0.920148 0.000000 -0.429892 -0.902880 0.000000 -0.995602 -0.093685 0.000000 -0.998094 -0.061718 0.000000 -0.900972 -0.433876 0.000000 0.418406 0.908260 0.000000 -0.614008 -0.789299 0.000000 -0.859718 0.510769 0.000000 -0.837341 -0.546681 0.000000 -0.759179 0.650882 0.000000 -0.855968 -0.517029 0.000000 -0.938065 0.346459 0.000000 0.944582 0.328274 0.000000 -0.986158 0.165806 0.000000 -0.914710 0.404112 0.000000 0.822369 0.568954 0.000000 -0.721448 0.692468 0.000000 0.648887 -0.760885 0.000000 0.030844 -0.999524 0.000000 0.704034 0.710166 0.000000 -0.876271 0.481819 0.000000 -0.760071 0.649839 0.000000 0.561132 0.827726 0.000000 0.996198 0.087119 0.000000 0.662296 -0.749242 0.000000 -0.972068 0.234700 0.000000 -0.657353 -0.753583 0.000000 0.510268 -0.860015 0.000000 0.980287 -0.197579 0.000000 0.891669 -0.452688 0.000000 0.634335 -0.773058 0.000000 0.768133 -0.640290 0.000000 -0.962359 -0.271780 0.000000 0.788223 -0.615390 0.000000 0.999294 -0.037568 0.000000 0.737443 -0.675409 0.000000 0.783097 -0.621899 0.000000 -0.040900 -0.999163 0.000000 0.231750 -0.972775 0.000000 0.395466 -0.918481 0.000000 0.899548 -0.436823 0.000000 0.112633 -0.993637 0.000000 0.422870 -0.906190 0.000000 0.161476 -0.986877 0.000000 0.853393 -0.521269 0.000000 -0.102359 -0.994748 0.000000 0.450528 -0.892763 0.000000 0.044424 -0.999013 0.000000 0.290287 0.956940 0.000000 -0.434467 -0.900688 0.000000 0.047668 -0.998863 0.000000 -0.719858 -0.694121 0.000000 -0.944331 -0.328996 0.000000 0.934505 -0.355951 0.000000 -0.852308 -0.523041 0.000000 -0.674427 -0.738342 0.000000 -0.289476 -0.957185 0.000000 -0.916634 -0.399729 0.000000 -0.303457 -0.952845 0.000000 0.196771 -0.980449 0.000000 0.505470 -0.862844 0.000000 -0.512844 -0.858482 0.000000 -0.811843 0.583876 0.000000 -0.769102 -0.639126 0.000000 0.784291 0.620393 0.000000 -0.516348 -0.856379 0.000000 -0.999902 -0.014002 0.000000 -0.712155 0.702023 0.000000 -0.284306 -0.958734 0.000000 -0.956017 -0.293310 0.000000 0.902854 -0.429947 0.000000 0.955033 0.296500 0.000000 -0.651153 -0.758946 0.000000 -0.969929 0.243389 0.000000 -0.457085 0.889423 0.000000 -0.763287 0.646060 0.000000 -0.944108 0.329637 0.000000 0.520829 0.853661 0.000000 -0.491142 0.871079 0.000000 -0.455295 0.890341 0.000000 0.674680 -0.738111 0.000000 0.709291 0.704916 0.000000 0.828007 0.560718 0.000000 -0.990434 0.137984 0.000000 0.540284 -0.841483 0.000000 0.987501 -0.157612 0.000000 -0.977868 -0.209223 0.000000 0.401949 -0.915662 0.000000 0.568800 -0.822476 0.000000 -0.905872 0.423552 0.000000 0.866254 -0.499604 0.000000 0.942661 -0.333752 0.000000 0.495501 -0.868607 0.000000 0.711165 -0.703025 0.000000 -0.577145 -0.816642 0.000000 -0.998888 -0.047149 0.000000 0.708134 -0.706078 0.000000 0.051699 -0.998663 0.000000 0.793533 -0.608527 0.000000 -0.999983 -0.005762 0.000000 0.465925 -0.884824 0.000000 0.307683 -0.951489 0.000000 -0.051776 -0.998659 0.000000 0.655215 -0.755443 0.000000 -0.004039 -0.999992 0.000000 0.613193 -0.789933 0.000000 0.132155 -0.991229 0.000000 0.316415 -0.948621 0.000000 -0.171882 -0.985118 0.000000 0.252625 -0.967564 0.000000 0.277598 -0.960697 0.000000 0.151757 -0.988418 0.000000 0.293261 -0.956033 0.000000 -0.206718 -0.978401 0.000000 -0.464235 -0.885712 0.000000 0.998428 -0.056042 0.000000 0.832054 0.554694 0.000000 -0.182662 -0.983176 0.000000 -0.147417 -0.989074 0.000000 -0.947310 -0.320319 0.000000 -0.508491 -0.861068 0.000000 -0.164521 -0.986374 0.000000 -0.451044 0.892502 0.000000 -0.323295 -0.946298 0.000000 -0.741721 -0.670708 0.000000 -0.973718 -0.227755 0.000000 -0.344048 -0.938952 0.000000 -0.349305 -0.937009 0.000000 0.984612 -0.174754 0.000000 -0.557839 0.829949 0.000000 -0.702966 -0.711224 0.000000 0.009166 -0.999958 0.000000 -0.716070 -0.698028 0.000000 0.436307 0.899798 0.000000 -0.985123 -0.171854 0.000000 0.942900 0.333076 0.000000 -0.853341 0.521353 0.000000 0.052958 0.998597 0.000000 -0.999791 0.020423 0.000000 0.141248 0.989974 0.000000 0.700194 -0.713953 0.000000 0.611615 -0.791155 0.000000 -0.982540 -0.186051 0.000000 0.604948 0.796265 0.000000 -0.363092 0.931753 0.000000 -0.491730 0.870748 0.000000 0.384126 0.923280 0.000000 0.461858 0.886954 0.000000 -0.208903 0.977936 0.000000 -0.908707 0.417434 0.000000 -0.731637 -0.681694 0.000000 0.107148 -0.994243 0.000000 -0.981165 -0.193171 0.000000 0.999031 0.044021 0.000000 0.677312 -0.735696 0.000000 0.614696 -0.788764 0.000000 0.666731 0.745298 0.000000 0.746210 0.665711 0.000000 -0.079762 -0.996814 0.000000 0.845457 -0.534043 0.000000 -0.784634 0.619959 0.000000 -0.913233 0.407438 0.000000 -0.831870 -0.554971 0.000000 0.957596 -0.288115 0.000000 -0.675747 -0.737134 0.000000 -0.703365 -0.710829 0.000000 0.292050 -0.956403 0.000000 0.603302 -0.797513 0.000000 0.337641 -0.941275 0.000000 0.565556 -0.824710 0.000000 0.304482 -0.952518 0.000000 0.750439 -0.660940 0.000000 -0.093566 -0.995613 0.000000 0.751813 -0.659376 0.000000 0.263389 -0.964690 0.000000 0.312582 -0.949891 0.000000 0.273413 -0.961897 0.000000 -0.019993 -0.999800 0.000000 0.262633 -0.964896 0.000000 0.317843 -0.948143 0.000000 -0.139734 -0.990189 0.000000 0.395046 -0.918661 0.000000 0.962422 -0.271557 0.000000 -0.244038 -0.969766 0.000000 0.765851 -0.643018 0.000000 -0.872700 -0.488257 0.000000 0.895617 0.444827 0.000000 0.106689 -0.994292 0.000000 -0.679205 -0.733949 0.000000 -0.287168 -0.957880 0.000000 -0.880220 -0.474565 0.000000 -0.805362 -0.592783 0.000000 -0.626704 -0.779258 0.000000 -0.820575 -0.571539 0.000000 -0.412890 -0.910781 0.000000 -0.403071 -0.915169 0.000000 -0.885559 -0.464526 0.000000 -0.965233 -0.261392 0.000000 -0.738201 0.674580 0.000000 -0.377785 -0.925893 0.000000 0.832010 -0.554761 0.000000 0.312497 0.949919 0.000000 -0.299595 0.954067 0.000000 -0.793410 0.608688 0.000000 -0.990792 0.135392 0.000000 -0.686627 0.727010 0.000000 0.953995 0.299824 0.000000 0.518079 0.855333 0.000000 -0.374428 0.927256 0.000000 0.195080 -0.980787 0.000000 -0.738108 -0.674682 0.000000 0.305588 0.952164 0.000000 0.567659 0.823264 0.000000 0.450449 0.892802 0.000000 0.082004 -0.996632 0.000000 -0.770146 0.637868 0.000000 0.230093 0.973169 0.000000 -0.709706 0.704498 0.000000 -0.567668 0.823258 0.000000 -0.176528 -0.984296 0.000000 0.999565 0.029494 0.000000 0.708001 0.706211 0.000000 0.290862 0.956765 0.000000 -0.962001 0.273045 0.000000 -0.422770 0.906237 0.000000 -0.828484 0.560013 0.000000 0.571771 0.820413 0.000000 0.683434 0.730013 0.000000 -0.102561 0.994727 0.000000 0.298384 -0.954446 0.000000 0.893693 0.448679 0.000000 0.930397 0.366552 0.000000 -0.807640 0.589676 0.000000 0.924427 -0.381358 0.000000 0.116050 0.993243 0.000000 -0.869620 -0.493722 0.000000 -0.730888 -0.682498 0.000000 -0.324558 -0.945866 0.000000 -0.407637 -0.913144 0.000000 0.637289 -0.770625 0.000000 -0.470685 0.882301 0.000000 -0.672260 0.740315 0.000000 0.473540 -0.880773 0.000000 0.478602 -0.878032 0.000000 0.572370 -0.819996 0.000000 0.531499 -0.847059 0.000000 0.383741 -0.923441 0.000000 -0.203987 -0.978974 0.000000 0.486694 -0.873572 0.000000 -0.173808 -0.984780 0.000000 0.042001 -0.999118 0.000000 0.269959 -0.962872 0.000000 0.187914 -0.982186 0.000000 -0.988956 -0.148210 0.000000 -0.444626 -0.895717 0.000000 0.060614 -0.998161 0.000000 -0.994301 -0.106605 0.000000 -0.855438 -0.517906 0.000000 0.949468 -0.313863 0.000000 -0.805386 -0.592750 0.000000 -0.994274 -0.106859 0.000000 -0.873369 -0.487060 0.000000 -0.936266 -0.351292 0.000000 -0.764715 -0.644368 0.000000 -0.965155 -0.261680 0.000000 -0.881954 -0.471336 0.000000 0.979363 -0.202110 0.000000 0.999997 0.002374 0.000000 -0.587654 -0.809112 0.000000 -0.357258 -0.934006 0.000000 0.160845 0.986980 0.000000 -0.598798 -0.800900 0.000000 0.891943 0.452148 0.000000 -0.676956 -0.736023 0.000000 0.972776 -0.231748 0.000000 -0.710721 0.703474 0.000000 -0.924568 -0.381016 0.000000 -0.998991 0.044918 0.000000 -0.201642 -0.979459 0.000000 -0.523711 0.851896 0.000000 0.451111 -0.892468 0.000000 0.929878 0.367868 0.000000 -0.660157 0.751128 0.000000 0.296472 0.955041 0.000000 0.667290 0.744798 0.000000 -0.125011 0.992155 0.000000 0.874388 0.485228 0.000000 -0.930958 0.365126 0.000000 -0.723577 0.690243 0.000000 0.348356 0.937362 0.000000 -0.240854 0.970561 0.000000 0.611475 -0.791264 0.000000 -0.872437 0.488726 0.000000 0.919182 0.393832 0.000000 -0.109877 0.993945 0.000000 -0.527309 0.849673 0.000000 -0.522822 0.852442 0.000000 0.754325 0.656501 0.000000 0.886306 0.463100 0.000000 -0.829928 0.557871 0.000000 0.741821 0.670597 0.000000 -0.736628 0.676298 0.000000 0.569624 -0.821905 0.000000 -0.582476 0.812848 0.000000 -0.534306 0.845291 0.000000 0.772850 0.634589 0.000000 0.028819 0.999585 0.000000 -0.954513 0.298169 0.000000 -0.944376 0.328869 0.000000 -0.869246 0.494379 0.000000 0.455973 0.889994 0.000000 -0.997841 -0.065679 0.000000 -0.424213 -0.905563 0.000000 0.428531 -0.903527 0.000000 0.149896 -0.988702 0.000000 -0.956962 0.290213 0.000000 -0.011210 -0.999937 0.000000 0.673999 -0.738732 0.000000 0.341048 -0.940046 0.000000 -0.148693 -0.988883 0.000000 0.413356 -0.910569 0.000000 0.191621 -0.981469 0.000000 -0.045894 -0.998946 0.000000 0.167039 -0.985950 0.000000 -0.649277 0.760552 0.000000 -0.621351 -0.783532 0.000000 0.191355 -0.981521 0.000000 0.949393 -0.314090 0.000000 -0.397668 -0.917529 0.000000 -0.842132 -0.539271 0.000000 -0.165867 -0.986148 0.000000 -0.732817 0.680426 0.000000 -0.827658 -0.561232 0.000000 -0.986338 -0.164736 0.000000 -0.728796 -0.684731 0.000000 -0.730656 -0.682746 0.000000 -0.968289 -0.249832 0.000000 -0.689433 -0.724350 0.000000 -0.834032 -0.551716 0.000000 -0.831242 -0.555910 0.000000 0.970381 -0.241582 0.000000 -0.083440 0.996513 0.000000 -0.825577 -0.564290 0.000000 -0.400268 -0.916398 0.000000 0.125444 -0.992101 0.000000 -0.689150 -0.724619 0.000000 -0.680173 -0.733051 0.000000 -0.646044 -0.763300 0.000000 0.992179 0.124826 0.000000 0.960255 -0.279124 0.000000 -0.885776 0.464113 0.000000 0.349853 -0.936805 0.000000 -0.247842 -0.968800 0.000000 0.348197 -0.937421 0.000000 0.346704 0.937975 0.000000 0.939411 0.342794 0.000000 0.278596 0.960408 0.000000 0.336794 0.941578 0.000000 0.835131 0.550051 0.000000 0.969764 0.244044 0.000000 0.706886 0.707328 0.000000 -0.827172 0.561949 0.000000 0.995664 0.093024 0.000000 -0.676691 0.736267 0.000000 0.137687 -0.990476 0.000000 -0.773020 0.634382 0.000000 0.544308 -0.838885 0.000000 0.926057 -0.377382 0.000000 0.553171 0.833068 0.000000 -0.991259 0.131929 0.000000 0.776389 -0.630254 0.000000 -0.383089 0.923712 0.000000 -0.930787 -0.365561 0.000000 0.687209 -0.726460 0.000000 0.852383 -0.522918 0.000000 0.981473 -0.191601 0.000000 0.612331 -0.790602 0.000000 -0.542397 0.840122 0.000000 0.666671 0.745353 0.000000 -0.915453 0.402424 0.000000 -0.570706 0.821154 0.000000 -0.469543 0.882910 0.000000 0.598870 0.800847 0.000000 0.607661 -0.794197 0.000000 -0.907867 -0.419258 0.000000 -1.000000 -0.000998 0.000000 0.513498 -0.858091 0.000000 0.998559 -0.053670 0.000000 0.323168 -0.946342 0.000000 0.740453 0.672108 0.000000 -0.174966 -0.984575 0.000000 0.860670 -0.509163 0.000000 0.150078 -0.988674 0.000000 0.947484 -0.319804 0.000000 -0.051381 -0.998679 0.000000 0.654286 -0.756247 0.000000 -0.284488 -0.958680 0.000000 0.338985 -0.940792 0.000000 -0.235004 -0.971994 0.000000 -0.325666 -0.945485 0.000000 0.571123 -0.820864 0.000000 -0.780758 -0.624833 0.000000 -0.712970 -0.701195 0.000000 0.086216 -0.996276 0.000000 -0.818751 -0.574149 0.000000 -0.884945 -0.465695 0.000000 -0.945586 -0.325372 0.000000 -0.087173 -0.996193 0.000000 -0.525479 -0.850807 0.000000 -0.528117 -0.849171 0.000000 -0.032093 0.999485 0.000000 -0.637364 -0.770563 0.000000 -0.774606 -0.632445 0.000000 -0.620792 -0.783975 0.000000 -0.557426 -0.830226 0.000000 0.311984 -0.950087 0.000000 -0.676356 0.736575 0.000000 0.976735 -0.214448 0.000000 -0.703010 -0.711180 0.000000 -0.974137 0.225960 0.000000 -0.544871 -0.838520 0.000000 0.502720 0.864449 0.000000 -0.071096 0.997470 0.000000 -0.672142 -0.740422 0.000000 -0.452080 0.891977 0.000000 -0.584628 0.811301 0.000000 0.328132 0.944632 0.000000 -0.324725 -0.945808 0.000000 -0.388051 0.921638 0.000000 0.369207 0.929347 0.000000 -0.189443 0.981892 0.000000 0.997677 0.068120 0.000000 -0.811459 0.584409 0.000000 -0.994539 0.104364 0.000000 0.141657 0.989916 0.000000 -0.227399 0.973802 0.000000 0.788634 0.614863 0.000000 -0.766204 0.642598 0.000000 0.215041 0.976605 0.000000 -0.917614 0.397472 0.000000 -0.956472 -0.291823 0.000000 0.933960 -0.357378 0.000000 0.625905 0.779899 0.000000 -0.773658 0.633603 0.000000 -0.403782 -0.914855 0.000000 -0.950918 -0.309442 0.000000 0.260580 -0.965452 0.000000 -0.983720 0.179710 0.000000 0.891201 -0.453609 0.000000 0.562703 0.826659 0.000000 -0.200633 0.979667 0.000000 -0.999159 0.041012 0.000000 -0.378622 -0.925551 0.000000 -0.803360 0.595494 0.000000 -0.876775 0.480901 0.000000 -0.483858 0.875146 0.000000 0.615118 0.788435 0.000000 0.680437 0.732806 0.000000 -0.530650 0.847591 0.000000 0.512013 0.858978 0.000000 -0.714621 0.699512 0.000000 -0.840123 -0.542396 0.000000 -0.846963 0.531651 0.000000 0.449162 -0.893450 0.000000 0.536685 0.843783 0.000000 -0.847188 0.531293 0.000000 -0.552188 0.833720 0.000000 -0.911788 -0.410662 0.000000 0.399822 -0.916593 0.000000 0.904832 -0.425768 0.000000 0.221967 -0.975054 0.000000 -0.140649 -0.990060 0.000000 -0.242255 -0.970213 0.000000 0.977085 -0.212851 0.000000 0.331980 -0.943287 0.000000 0.303612 -0.952796 0.000000 0.406381 -0.913704 0.000000 -0.672299 -0.740280 0.000000 -0.287594 -0.957752 0.000000 -0.516113 -0.856520 0.000000 0.452791 -0.891616 0.000000 0.662805 -0.748792 0.000000 -0.936235 -0.351376 0.000000 -0.631441 -0.775424 0.000000 0.995370 -0.096114 0.000000 -0.930063 -0.367399 0.000000 0.135308 -0.990804 0.000000 -0.948085 -0.318018 0.000000 -0.064280 -0.997932 0.000000 -0.962605 -0.270909 0.000000 -0.661462 0.749979 0.000000 -0.015630 -0.999878 0.000000 0.009561 -0.999954 0.000000 0.973363 -0.229268 0.000000 -0.036739 -0.999325 0.000000 -0.958988 -0.283446 0.000000 -0.454203 -0.890898 0.000000 -0.970922 -0.239396 0.000000 -0.470832 -0.882223 0.000000 0.220034 -0.975492 0.000000 -0.774470 0.632611 0.000000 -0.985316 -0.170739 0.000000 0.373190 0.927755 0.000000 0.913292 -0.407305 0.000000 -0.309524 -0.950892 0.000000 -0.817621 -0.575756 0.000000 -0.658469 0.752608 0.000000 0.674190 0.738558 0.000000 0.829261 0.558862 0.000000 -0.887171 0.461441 0.000000 0.291089 0.956696 0.000000 0.552426 0.833562 0.000000 -0.713111 0.701051 0.000000 -0.524935 0.851142 0.000000 0.840009 0.542572 0.000000 0.475588 0.879668 0.000000 0.987739 0.156116 0.000000 -0.895935 0.444185 0.000000 -0.438729 0.898619 0.000000 0.816592 0.577216 0.000000 0.158574 0.987347 0.000000 -0.669974 0.742385 0.000000 -0.867259 0.497857 0.000000 0.605356 0.795955 0.000000 0.560467 0.828177 0.000000 0.891348 -0.453319 0.000000 -0.572694 0.819769 0.000000 -0.083793 -0.996483 0.000000 -0.618515 0.785773 0.000000 0.822044 -0.569425 0.000000 0.708794 -0.705416 0.000000 -0.908285 0.418352 0.000000 0.838980 0.544162 0.000000 -0.946306 -0.323272 0.000000 -0.083073 0.996543 0.000000 0.887449 0.460906 0.000000 -0.365738 0.930718 0.000000 0.996678 0.081446 0.000000 -0.303398 0.952864 0.000000 -0.855974 0.517019 0.000000 0.659314 0.751867 0.000000 0.412608 0.910909 0.000000 0.480339 0.877083 0.000000 -0.953352 0.301861 0.000000 0.385702 0.922623 0.000000 0.932278 0.361742 0.000000 0.706998 -0.707215 0.000000 0.248783 -0.968559 0.000000 0.912659 0.408722 0.000000 -0.846220 -0.532834 0.000000 0.832625 -0.553838 0.000000 -0.709272 0.704935 0.000000 -0.102506 0.994732 0.000000 0.298464 0.954421 0.000000 0.265560 -0.964094 0.000000 -0.146173 -0.989259 0.000000 -0.969843 -0.243732 0.000000 0.540902 -0.841085 0.000000 0.728729 -0.684802 0.000000 0.998633 -0.052261 0.000000 -0.763576 -0.645718 0.000000 -0.911031 -0.412337 0.000000 0.999999 -0.001698 0.000000 -0.657634 -0.753338 0.000000 -0.373534 -0.927616 0.000000 -0.967502 0.252863 0.000000 -0.698637 0.715476 0.000000 0.998965 -0.045483 0.000000 -0.567238 -0.823554 0.000000 -0.949271 -0.314460 0.000000 0.257060 -0.966396 0.000000 -0.150079 0.988674 0.000000 -0.829090 -0.559115 0.000000 -0.863696 -0.504014 0.000000 -0.896485 -0.443075 0.000000 0.645431 -0.763819 0.000000 -0.824202 -0.566295 0.000000 -0.799843 0.600210 0.000000 -0.992794 0.119834 0.000000 -0.879118 -0.476605 0.000000 -0.145783 0.989317 0.000000 0.978727 0.205165 0.000000 -0.666529 0.745479 0.000000 0.761349 0.648343 0.000000 0.174906 0.984585 0.000000 -0.729314 0.684179 0.000000 -0.501198 0.865333 0.000000 0.641667 0.766984 0.000000 0.908861 -0.417099 0.000000 0.789798 0.613367 0.000000 -0.493708 0.869628 0.000000 0.412766 0.910837 0.000000 0.994384 0.105835 0.000000 -0.095534 0.995426 0.000000 -0.996000 0.089356 0.000000 -0.471598 0.881814 0.000000 -0.823193 0.567762 0.000000 0.735073 0.677988 0.000000 -0.839524 -0.543322 0.000000 -0.998638 0.052181 0.000000 0.967276 0.253728 0.000000 0.702092 0.712086 0.000000 -0.780810 0.624768 0.000000 0.996468 0.083979 0.000000 0.610072 0.792346 0.000000 -0.770649 0.637260 0.000000 0.392038 0.919949 0.000000 -0.511683 -0.859175 0.000000 -0.770357 0.637613 0.000000 0.549229 -0.835672 0.000000 -0.264022 -0.964517 0.000000 0.788785 -0.614670 0.000000 -0.409479 0.912319 0.000000 0.976063 0.217486 0.000000 0.120742 0.992684 0.000000 -0.728145 0.685424 0.000000 0.137893 0.990447 0.000000 0.926812 0.375525 0.000000 0.903447 -0.428700 0.000000 0.384977 0.922926 0.000000 0.794965 -0.606655 0.000000 -0.945492 -0.325644 0.000000 0.678840 -0.734286 0.000000 0.888671 -0.458546 0.000000 -0.301839 -0.953359 0.000000 -0.999777 -0.021140 0.000000 0.949243 0.314545 0.000000 0.901929 -0.431884 0.000000 0.999647 0.026579 0.000000 -0.587430 0.809275 0.000000 -0.656050 0.754717 0.000000 -0.034131 -0.999417 0.000000 0.797100 0.603847 0.000000 0.960562 0.278065 0.000000 0.778126 -0.628108 0.000000 -0.982953 0.183855 0.000000 0.197620 -0.980279 0.000000 0.130247 0.991482 0.000000 0.498195 -0.867065 0.000000 -0.787672 0.616095 0.000000 0.500515 -0.865728 0.000000 0.696830 0.717236 0.000000 -0.755215 0.655477 0.000000 -0.413941 -0.910304 0.000000 0.935791 0.352557 0.000000 -0.439959 -0.898018 0.000000 0.389772 -0.920911 0.000000 -0.999937 -0.011193 0.000000 -0.777010 -0.629488 0.000000 -0.237037 -0.971501 0.000000 0.792023 -0.610491 0.000000 -0.263939 -0.964539 0.000000 0.688337 0.725391 0.000000 0.768327 -0.640058 0.000000 -0.706681 -0.707532 0.000000 0.954369 -0.298629 0.000000 0.631853 0.775088 0.000000 0.770422 -0.637534 0.000000 -0.558897 0.829237 0.000000 0.995111 0.098765 0.000000 -0.595034 -0.803700 0.000000 0.068128 -0.997677 0.000000 0.488979 0.872295 0.000000 -0.800221 0.599705 0.000000 0.553142 0.833087 0.000000 -0.618482 0.785799 0.000000 0.018505 0.999829 0.000000 0.261653 0.965162 0.000000 0.086281 0.996271 0.000000 -0.171972 0.985102 0.000000 -0.599800 0.800150 0.000000 0.299259 0.954172 0.000000 0.163305 0.986576 0.000000 0.760857 0.648919 0.000000 0.095384 0.995441 0.000000 -0.540280 0.841485 0.000000 -0.986122 0.166024 0.000000 0.839829 0.542850 0.000000 0.820009 0.572351 0.000000 0.527797 0.849371 0.000000 -0.764437 0.644699 0.000000 0.620294 0.784369 0.000000 -0.801181 0.598422 0.000000 0.761225 0.648487 0.000000 -0.088245 0.996099 0.000000 0.617844 0.786301 0.000000 -0.496580 0.867991 0.000000 -0.171670 -0.985155 0.000000 0.558666 0.829392 0.000000 0.659720 0.751512 0.000000 -0.974082 -0.226196 0.000000 -0.106771 -0.994284 0.000000 0.593195 -0.805059 0.000000 -0.995612 0.093577 0.000000 0.255607 0.966781 0.000000 -0.664270 -0.747492 0.000000 -0.573563 0.819162 0.000000 0.403745 0.914871 0.000000 0.799479 0.600693 0.000000 -0.601639 -0.798768 0.000000 -0.947236 -0.320537 0.000000 0.164068 -0.986449 0.000000 0.820516 0.571624 0.000000 -0.969675 0.244397 0.000000 0.798913 0.601446 0.000000 -0.242282 0.970206 0.000000 -0.934194 0.356764 0.000000 -0.618322 0.785925 0.000000 -0.982609 -0.185687 0.000000 0.156214 0.987723 0.000000 -0.453679 -0.891165 0.000000 0.970002 -0.243098 0.000000 0.878826 0.477143 0.000000 0.707430 0.706783 0.000000 -0.983356 -0.181689 0.000000 0.999723 0.023539 0.000000 -0.930054 -0.367423 0.000000 -0.992472 -0.122470 0.000000 -0.982408 -0.186745 0.000000 0.634261 -0.773119 0.000000 0.937333 -0.348435 0.000000 0.604113 0.796899 0.000000 -0.839538 -0.543301 0.000000 -0.698308 -0.715797 0.000000 0.611092 -0.791560 0.000000 0.961600 -0.274453 0.000000 -0.566944 -0.823756 0.000000 0.334557 -0.942376 0.000000 0.051785 -0.998658 0.000000 0.162740 0.986669 0.000000 -0.702230 -0.711950 0.000000 0.530061 0.847960 0.000000 -0.044315 -0.999018 0.000000 -0.437392 0.899271 0.000000 0.816739 -0.577008 0.000000 -0.115052 -0.993360 0.000000 -0.999989 -0.004714 0.000000 -0.714174 -0.699968 0.000000 -0.437396 -0.899269 0.000000 0.868951 -0.494898 0.000000 -0.331849 0.943333 0.000000 0.598359 0.801228 0.000000 -0.424549 0.905405 0.000000 0.816020 0.578024 0.000000 0.509410 -0.860524 0.000000 0.209125 0.977889 0.000000 -0.179153 0.983821 0.000000 0.908902 0.417010 0.000000 -0.344069 0.938944 0.000000 -0.595999 0.802985 0.000000 0.260511 0.965471 0.000000 -0.748470 -0.663169 0.000000 -0.260424 0.965494 0.000000 -0.973238 0.229801 0.000000 -0.243272 0.969958 0.000000 0.389206 0.921151 0.000000 0.497588 0.867414 0.000000 -0.603927 0.797040 0.000000 0.987168 0.159683 0.000000 -0.749302 0.662228 0.000000 0.985403 0.170237 0.000000 -0.604270 0.796780 0.000000 0.879089 0.476658 0.000000 0.514437 0.857528 0.000000 0.767795 -0.640695 0.000000 0.569873 0.821733 0.000000 -0.298437 -0.954429 0.000000 0.601994 -0.798501 0.000000 -0.641009 0.767534 0.000000 0.792530 0.609833 0.000000 0.916018 0.401138 0.000000 0.445210 -0.895426 0.000000 -0.662848 -0.748754 0.000000 -0.934102 -0.357006 0.000000 -0.523342 0.852123 0.000000 0.845869 0.533390 0.000000 -0.545788 0.837923 0.000000 -0.994930 0.100569 0.000000 0.268772 0.963204 0.000000 0.902230 -0.431256 0.000000 0.974798 -0.223090 0.000000 -0.992896 -0.118983 0.000000 0.668115 -0.744058 0.000000 -0.954717 0.297515 0.000000 -0.684360 -0.729144 0.000000 -0.046271 0.998929 0.000000 -0.043435 0.999056 0.000000 0.552030 0.833824 0.000000 0.999999 0.001279 0.000000 -0.830103 0.557610 0.000000 0.865586 0.500760 0.000000 -0.556917 0.830568 0.000000 0.436415 0.899745 0.000000 -0.791913 -0.610634 0.000000 -0.546868 0.837219 0.000000 0.782275 -0.622933 0.000000 0.076716 -0.997053 0.000000 0.837524 -0.546400 0.000000 -0.969283 -0.245950 0.000000 -0.780961 0.624579 0.000000 0.197326 -0.980338 0.000000 -0.462583 0.886576 0.000000 0.300181 -0.953882 0.000000 0.794506 -0.607256 0.000000 0.751941 -0.659230 0.000000 -0.631257 -0.775574 0.000000 -0.959344 -0.282239 0.000000 0.993287 -0.115672 0.000000 0.224232 -0.974536 0.000000 0.991371 -0.131088 0.000000 -0.793604 0.608434 0.000000 -0.908624 -0.417615 0.000000 -0.868078 -0.496428 0.000000 -0.719692 0.694293 0.000000 0.917343 -0.398098 0.000000 -0.570176 -0.821523 0.000000 -0.087728 -0.996145 0.000000 0.165674 -0.986181 0.000000 0.377120 -0.926164 0.000000 0.965607 -0.260006 0.000000 0.476612 -0.879114 0.000000 0.361576 -0.932343 0.000000 -0.981783 -0.190004 0.000000 0.673577 -0.739117 0.000000 0.443063 -0.896490 0.000000 -0.037866 -0.999283 0.000000 0.912184 -0.409782 0.000000 0.830323 -0.557282 0.000000 0.980079 0.198606 0.000000 -0.658327 0.752732 0.000000 0.562468 0.826819 0.000000 -0.981957 0.189104 0.000000 -0.