<?xml version='1.0'?>
<VTKFile type='UnstructuredGrid' version='0.1' byte_order='LittleEndian'><UnstructuredGrid>
<Piece NumberOfPoints='3000' NumberOfCells='0'>
<PointData Vectors='principal_stress_direction_1 principal_stress_direction_2 principal_stress_direction_3'>
<DataArray type='Float32' Name='principal_stress_direction_1' NumberOfComponents='3' format='ascii'>
-0.977776 0.209650 0.000000 -0.785894 0.618362 0.000000 0.352597 0.935775 0.000000 -0.505319 0.862933 0.000000 0.377530 -0.925997 0.000000 0.521793 0.853072 0.000000 0.509571 -0.860428 0.000000 -0.994748 -0.102351 0.000000 -0.900383 0.435099 0.000000 -0.678113 0.734958 0.000000 -0.545092 0.838376 0.000000 0.988962 0.148173 0.000000 0.636825 0.771008 0.000000 0.969169 0.246398 0.000000 -0.998105 0.061539 0.000000 0.998794 0.049092 0.000000 -0.768105 0.640324 0.000000 -0.557097 0.830448 0.000000 -0.192519 0.981293 0.000000 0.623586 0.781754 0.000000 0.698289 0.715816 0.000000 0.919227 -0.393729 0.000000 0.951318 -0.308211 0.000000 -0.242450 0.970164 0.000000 0.856196 -0.516651 0.000000 0.451320 0.892362 0.000000 -0.853628 0.520884 0.000000 -0.109366 -0.994002 0.000000 -0.833382 -0.552698 0.000000 0.942719 0.333588 0.000000 0.663822 -0.747890 0.000000 0.998864 0.047642 0.000000 -0.579569 0.814923 0.000000 0.628377 -0.777909 0.000000 0.961164 -0.275976 0.000000 0.994520 0.104543 0.000000 -0.359294 0.933224 0.000000 -0.702513 0.711671 0.000000 -0.666189 0.745783 0.000000 0.949691 0.313188 0.000000 0.297280 0.954790 0.000000 -0.736753 0.676162 0.000000 -0.982333 0.187139 0.000000 0.727378 0.686237 0.000000 0.574186 0.818725 0.000000 -0.807099 0.590417 0.000000 0.232465 0.972605 0.000000 -0.557839 -0.829949 0.000000 0.758949 -0.651150 0.000000 -0.833741 0.552156 0.000000 -0.760977 0.648779 0.000000 -0.938705 -0.344721 0.000000 0.797773 -0.602958 0.000000 0.764728 -0.644354 0.000000 0.118563 0.992947 0.000000 -0.555669 0.831404 0.000000 -0.844122 0.536152 0.000000 0.951572 0.307426 0.000000 -0.542031 0.840359 0.000000 -0.572050 0.820219 0.000000 0.320864 -0.947125 0.000000 0.092318 -0.995730 0.000000 -0.228012 -0.973658 0.000000 0.307447 -0.951565 0.000000 0.992347 0.123481 0.000000 -0.359200 -0.933260 0.000000 -0.441644 -0.897190 0.000000 -0.810132 0.586248 0.000000 0.093895 -0.995582 0.000000 0.897047 -0.441934 0.000000 -0.833381 0.552698 0.000000 0.949595 0.313480 0.000000 -0.346801 0.937939 0.000000 -0.918686 0.394989 0.000000 -0.758573 -0.651588 0.000000 0.865808 0.500377 0.000000 -0.980296 -0.197532 0.000000 -0.967748 0.251919 0.000000 0.614422 0.788977 0.000000 -0.316975 0.948434 0.000000 0.803228 0.595672 0.000000 -0.789412 0.613864 0.000000 0.954487 0.298253 0.000000 -0.162238 0.986752 0.000000 0.377528 0.925998 0.000000 -0.902808 0.430044 0.000000 -0.847138 0.531373 0.000000 -0.760015 -0.649905 0.000000 0.611946 -0.790900 0.000000 0.512451 -0.858716 0.000000 -0.878537 -0.477675 0.000000 -0.739251 0.673430 0.000000 -0.731768 -0.681554 0.000000 0.966131 -0.258052 0.000000 -0.653267 0.757128 0.000000 0.972822 -0.231555 0.000000 -0.778213 0.628000 0.000000 0.535537 0.844512 0.000000 -0.131383 0.991332 0.000000 -0.838087 0.545537 0.000000 0.396425 -0.918067 0.000000 -0.571527 0.820583 0.000000 0.623654 0.781700 0.000000 0.254806 -0.966992 0.000000 -0.022467 -0.999748 0.000000 0.924592 -0.380958 0.000000 -0.620051 -0.784561 0.000000 0.505480 -0.862838 0.000000 -0.898683 0.438599 0.000000 -0.702014 0.712163 0.000000 0.088537 -0.996073 0.000000 -0.816517 -0.577322 0.000000 0.747806 -0.663917 0.000000 -0.845386 -0.534156 0.000000 0.990188 -0.139739 0.000000 -0.663918 -0.747805 0.000000 0.731275 0.682083 0.000000 -0.739248 -0.673433 0.000000 -0.854588 -0.519306 0.000000 0.342699 0.939445 0.000000 0.997754 -0.066982 0.000000 0.565641 -0.824651 0.000000 -0.832635 0.553822 0.000000 0.900447 0.434966 0.000000 0.023650 0.999720 0.000000 -0.988689 0.149978 0.000000 -0.383424 0.923573 0.000000 -0.880336 0.474350 0.000000 -0.554373 0.832268 0.000000 -0.696455 0.717601 0.000000 0.982200 0.187838 0.000000 -0.999727 0.023354 0.000000 -0.716159 0.697937 0.000000 -0.556943 0.830551 0.000000 -0.827031 -0.562156 0.000000 0.771520 0.636206 0.000000 0.826270 -0.563275 0.000000 -0.825793 -0.563973 0.000000 -0.880783 0.473520 0.000000 -0.502561 0.864542 0.000000 0.965072 0.261984 0.000000 -0.151065 -0.988524 0.000000 -0.973624 -0.228158 0.000000 -0.147974 -0.988991 0.000000 -0.726836 0.686811 0.000000 0.614557 -0.788873 0.000000 -0.142538 0.989789 0.000000 0.075719 -0.997129 0.000000 0.243929 -0.969793 0.000000 0.732829 0.680413 0.000000 0.597705 0.801716 0.000000 -0.392060 -0.919940 0.000000 0.746252 0.665664 0.000000 -0.054032 -0.998539 0.000000 0.995593 0.093782 0.000000 -0.843779 -0.536691 0.000000 0.648280 0.761402 0.000000 0.097966 0.995190 0.000000 -0.504542 -0.863387 0.000000 0.043512 -0.999053 0.000000 -0.764341 -0.644813 0.000000 0.708267 0.705945 0.000000 0.656103 -0.754671 0.000000 -0.772954 0.634462 0.000000 -0.780104 -0.625650 0.000000 -0.999995 -0.003019 0.000000 0.813883 0.581029 0.000000 -0.326079 -0.945342 0.000000 -0.867951 -0.496650 0.000000 0.557361 -0.830270 0.000000 -0.744057 0.668116 0.000000 -0.486341 -0.873769 0.000000 0.644685 0.764449 0.000000 0.709849 0.704354 0.000000 -0.696412 0.717642 0.000000 -0.908270 0.418385 0.000000 0.840992 0.541048 0.000000 0.807939 0.589266 0.000000 -0.971164 0.238413 0.000000 0.932353 0.361549 0.000000 -0.976478 0.215619 0.000000 -0.888721 0.458449 0.000000 -0.751768 0.659428 0.000000 0.950557 0.310549 0.000000 0.930503 0.366284 0.000000 -0.998616 0.052587 0.000000 -0.926644 0.375939 0.000000 -0.736523 0.676413 0.000000 -0.998606 -0.052790 0.000000 0.928887 0.370363 0.000000 0.985836 -0.167710 0.000000 -0.670445 0.741960 0.000000 -0.848954 0.528466 0.000000 0.963134 -0.269023 0.000000 0.558656 0.829399 0.000000 0.868110 -0.496373 0.000000 -0.697592 0.716495 0.000000 -0.931707 0.363212 0.000000 0.126581 -0.991956 0.000000 -0.070907 -0.997483 0.000000 0.984841 -0.173462 0.000000 -0.810474 -0.585775 0.000000 -0.360076 -0.932923 0.000000 -0.165081 -0.986280 0.000000 0.434938 -0.900461 0.000000 -0.151471 -0.988462 0.000000 0.508382 -0.861132 0.000000 -0.463559 0.886066 0.000000 -0.363215 -0.931705 0.000000 -0.648131 -0.761529 0.000000 -0.123853 -0.992301 0.000000 -0.412056 0.911159 0.000000 -0.675035 -0.737786 0.000000 -0.788879 -0.614549 0.000000 -0.886312 -0.463089 0.000000 -0.601737 0.798695 0.000000 -0.456536 -0.889705 0.000000 0.940742 0.339123 0.000000 -0.764658 0.644437 0.000000 0.455963 0.889999 0.000000 0.871007 0.491271 0.000000 0.104707 0.994503 0.000000 0.813451 0.581633 0.000000 -0.833658 0.552282 0.000000 -0.682835 -0.730573 0.000000 0.970815 0.239830 0.000000 -0.992096 -0.125485 0.000000 0.894822 0.446423 0.000000 0.215709 0.976458 0.000000 0.948250 0.317526 0.000000 0.483112 0.875559 0.000000 -0.754065 0.656800 0.000000 0.669314 0.742980 0.000000 -0.936761 0.349971 0.000000 0.946079 0.323937 0.000000 0.992844 0.119421 0.000000 -0.917091 0.398677 0.000000 0.819747 0.572726 0.000000 -0.720868 0.693073 0.000000 -0.770340 0.637633 0.000000 0.841413 0.540392 0.000000 0.700616 0.713538 0.000000 -0.877227 0.480076 0.000000 -0.761510 0.648153 0.000000 0.558361 0.829598 0.000000 0.991154 0.132720 0.000000 -0.959996 0.280014 0.000000 0.575549 0.817767 0.000000 -0.910069 0.414458 0.000000 -0.364886 0.931052 0.000000 0.985377 0.170389 0.000000 -0.518632 -0.854998 0.000000 0.923678 -0.383170 0.000000 0.557185 -0.830389 0.000000 0.912143 -0.409873 0.000000 -0.973944 -0.226790 0.000000 0.773425 -0.633888 0.000000 0.174067 -0.984734 0.000000 -0.457275 0.889326 0.000000 0.028819 -0.999585 0.000000 0.266404 -0.963861 0.000000 -0.159576 -0.987186 0.000000 0.591233 -0.806500 0.000000 0.468284 -0.883578 0.000000 0.015497 -0.999880 0.000000 0.245884 -0.969299 0.000000 -0.847451 0.530874 0.000000 -0.758829 -0.651290 0.000000 0.631618 -0.775279 0.000000 0.179940 -0.983678 0.000000 -0.350048 0.936732 0.000000 -0.986861 -0.161572 0.000000 0.797451 0.603383 0.000000 -0.933152 0.359483 0.000000 -0.220368 -0.975417 0.000000 -0.794480 -0.607290 0.000000 -0.747285 0.664504 0.000000 -0.728171 -0.685395 0.000000 -0.685296 -0.728264 0.000000 0.639845 0.768504 0.000000 -0.537559 -0.843226 0.000000 -0.739690 0.672948 0.000000 0.854066 0.520164 0.000000 0.589350 0.807878 0.000000 -0.910280 -0.413993 0.000000 0.998096 0.061677 0.000000 0.329287 0.944230 0.000000 -0.025245 -0.999681 0.000000 -0.459708 -0.888070 0.000000 -0.712338 0.701837 0.000000 0.995632 0.093361 0.000000 0.485887 0.874021 0.000000 -0.026791 0.999641 0.000000 0.956133 0.292932 0.000000 -0.929134 0.369743 0.000000 0.945022 -0.327007 0.000000 -0.456250 0.889852 0.000000 -0.768791 0.639500 0.000000 -0.944469 0.328599 0.000000 0.508705 0.860941 0.000000 -0.513030 0.858370 0.000000 -0.464656 0.885491 0.000000 -0.651451 0.758690 0.000000 0.703406 0.710789 0.000000 0.822004 0.569482 0.000000 -0.827143 0.561992 0.000000 -0.851181 0.524872 0.000000 0.879484 0.475929 0.000000 0.957832 0.287329 0.000000 -0.156467 0.987683 0.000000 0.794402 0.607392 0.000000 -0.945145 0.326650 0.000000 0.704616 -0.709589 0.000000 -0.832700 0.553724 0.000000 0.063268 -0.997997 0.000000 0.933027 -0.359806 0.000000 0.760829 -0.648952 0.000000 0.577615 -0.816309 0.000000 0.419217 -0.907886 0.000000 0.991237 0.132096 0.000000 -0.210381 -0.977620 0.000000 0.682485 -0.730899 0.000000 0.283009 -0.959117 0.000000 -0.315299 0.948992 0.000000 0.114810 -0.993387 0.000000 0.663864 -0.747853 0.000000 0.137338 -0.990524 0.000000 0.447449 -0.894309 0.000000 0.713258 -0.700901 0.000000 0.471514 -0.881859 0.000000 -0.925950 -0.377647 0.000000 0.021643 -0.999766 0.000000 0.764968 -0.644068 0.000000 0.339678 -0.940542 0.000000 0.679439 -0.733732 0.000000 -0.717914 -0.696131 0.000000 0.065423 0.997858 0.000000 -0.999665 0.025886 0.000000 0.817640 0.575730 0.000000 -0.792002 -0.610519 0.000000 -0.871003 -0.491278 0.000000 -0.979223 -0.202784 0.000000 -0.583532 -0.812090 0.000000 -0.641399 0.767208 0.000000 -0.695795 0.718240 0.000000 -0.822023 -0.569455 0.000000 -0.857161 -0.515049 0.000000 0.879182 0.476487 0.000000 -0.573180 0.819429 0.000000 -0.511324 0.859388 0.000000 0.905548 0.424244 0.000000 0.059000 -0.998258 0.000000 -0.765996 -0.642846 0.000000 0.455363 0.890306 0.000000 -0.805457 0.592655 0.000000 -0.359701 -0.933068 0.000000 0.942042 0.335495 0.000000 -0.577329 0.816512 0.000000 -0.729584 0.683891 0.000000 -0.997345 0.072821 0.000000 -0.338222 0.941066 0.000000 0.018765 -0.999824 0.000000 -0.700364 0.713786 0.000000 -0.669451 0.742856 0.000000 -0.678146 0.734927 0.000000 0.599343 0.800492 0.000000 -0.384928 0.922947 0.000000 -0.488844 0.872371 0.000000 0.392206 0.919877 0.000000 0.463262 0.886222 0.000000 -0.221868 0.975077 0.000000 -0.908194 0.418549 0.000000 0.725795 0.687911 0.000000 0.411063 0.911607 0.000000 0.040428 -0.999182 0.000000 0.998638 0.052166 0.000000 0.479653 0.877458 0.000000 -0.821982 0.569513 0.000000 0.665125 0.746732 0.000000 0.784870 0.619661 0.000000 -0.965951 0.258726 0.000000 0.991711 -0.128490 0.000000 -0.994537 -0.104380 0.000000 -0.846074 0.533065 0.000000 0.078897 -0.996883 0.000000 0.721276 -0.692648 0.000000 0.295736 -0.955270 0.000000 0.517456 -0.855710 0.000000 0.730481 -0.682933 0.000000 0.332498 -0.943104 0.000000 0.517618 -0.855612 0.000000 0.497553 -0.867434 0.000000 -0.131072 -0.991373 0.000000 -0.854659 -0.519189 0.000000 -0.987811 -0.155658 0.000000 0.394724 -0.918800 0.000000 0.846581 -0.532259 0.000000 0.792989 -0.609236 0.000000 -0.666697 0.745329 0.000000 0.146256 -0.989247 0.000000 -0.286956 -0.957944 0.000000 0.642004 -0.766701 0.000000 0.144812 -0.989459 0.000000 -0.166286 0.986078 0.000000 -0.993624 -0.112745 0.000000 -0.787928 0.615767 0.000000 -0.800339 -0.599548 0.000000 -0.958799 -0.284087 0.000000 -0.788355 -0.615220 0.000000 -0.290021 -0.957020 0.000000 -0.811023 0.585015 0.000000 0.887374 0.461050 0.000000 -0.781926 -0.623371 0.000000 -0.895045 -0.445975 0.000000 -0.066946 -0.997757 0.000000 -0.707175 0.707038 0.000000 -0.392888 -0.919587 0.000000 0.894010 0.448047 0.000000 0.673489 0.739198 0.000000 0.507358 0.861735 0.000000 -0.736302 0.676653 0.000000 0.606029 0.795442 0.000000 -0.914815 0.403872 0.000000 0.314995 0.949093 0.000000 -0.868062 0.496456 0.000000 -0.783161 0.621819 0.000000 -0.990485 0.137623 0.000000 -0.683292 0.730145 0.000000 0.955652 0.294497 0.000000 0.516925 0.856031 0.000000 -0.344252 0.938877 0.000000 -0.911907 0.410396 0.000000 -0.749291 0.662240 0.000000 0.288704 0.957418 0.000000 0.565371 0.824837 0.000000 0.458948 0.888463 0.000000 -0.525969 0.850504 0.000000 -0.801176 0.598428 0.000000 0.218324 0.975876 0.000000 -0.685006 0.728537 0.000000 -0.570402 0.821366 0.000000 0.201204 0.979549 0.000000 0.999445 0.033307 0.000000 0.698402 0.715705 0.000000 0.284647 0.958632 0.000000 -0.955874 0.293778 0.000000 -0.462293 0.886727 0.000000 -0.825478 0.564434 0.000000 0.566485 0.824072 0.000000 -0.203085 -0.979161 0.000000 -0.848402 0.529353 0.000000 -0.194781 0.980847 0.000000 -0.265793 -0.964030 0.000000 0.865372 0.501130 0.000000 -0.947101 0.320936 0.000000 -0.926068 0.377356 0.000000 -0.542952 0.839764 0.000000 0.853060 -0.521813 0.000000 -0.743655 -0.668563 0.000000 0.628161 0.778084 0.000000 0.266624 -0.963801 0.000000 0.530223 -0.847858 0.000000 0.356905 -0.934141 0.000000 0.476276 -0.879296 0.000000 0.036739 -0.999325 0.000000 0.331765 -0.943362 0.000000 0.529434 -0.848351 0.000000 0.556998 -0.830514 0.000000 -0.026818 -0.999640 0.000000 -0.194621 -0.980878 0.000000 0.169637 -0.985507 0.000000 0.469038 -0.883178 0.000000 -0.209396 0.977831 0.000000 -0.803071 -0.595883 0.000000 0.687820 0.725881 0.000000 -0.948454 -0.316915 0.000000 0.323446 0.946247 0.000000 -0.807622 0.589701 0.000000 -0.900168 -0.435542 0.000000 0.762299 -0.647225 0.000000 0.657556 -0.753406 0.000000 -0.716066 -0.698032 0.000000 -0.464207 -0.885727 0.000000 -0.907469 -0.420120 0.000000 0.997966 0.063753 0.000000 0.862521 -0.506021 0.000000 -0.887653 -0.460514 0.000000 0.958766 0.284198 0.000000 0.654638 0.755943 0.000000 0.999993 0.003855 0.000000 -0.309153 -0.951012 0.000000 -0.999922 0.012462 0.000000 -0.987693 0.156406 0.000000 0.862655 0.505793 0.000000 -0.807239 0.590224 0.000000 0.405023 0.914307 0.000000 0.992520 0.122084 0.000000 -0.710197 0.704003 0.000000 0.459554 0.888150 0.000000 -0.998705 0.050873 0.000000 -0.381072 0.924545 0.000000 -0.531286 0.847193 0.000000 0.480725 0.876871 0.000000 0.933534 0.358490 0.000000 -0.669774 0.742565 0.000000 0.287088 0.957904 0.000000 0.672353 0.740231 0.000000 -0.120108 0.992761 0.000000 0.879961 0.475046 0.000000 -0.945725 0.324969 0.000000 -0.734499 0.678610 0.000000 0.343995 0.938972 0.000000 -0.262198 0.965014 0.000000 -0.438295 0.898831 0.000000 -0.875736 0.482791 0.000000 0.915536 0.402236 0.000000 -0.115483 0.993310 0.000000 -0.533070 0.846071 0.000000 -0.532301 0.846555 0.000000 0.754003 0.656871 0.000000 0.881940 0.471362 0.000000 -0.749990 0.661449 0.000000 0.741089 0.671406 0.000000 -0.738424 0.674336 0.000000 0.747136 0.664671 0.000000 -0.583978 0.811769 0.000000 -0.535641 0.844446 0.000000 -0.646377 0.763018 0.000000 -0.986281 0.165078 0.000000 -0.954802 0.297242 0.000000 -0.944815 0.327605 0.000000 -0.848358 0.529424 0.000000 0.922304 -0.386466 0.000000 0.310380 -0.950613 0.000000 0.499320 -0.866417 0.000000 0.484955 -0.874539 0.000000 0.490695 -0.871331 0.000000 0.126786 -0.991930 0.000000 0.193841 -0.981033 0.000000 0.217752 0.976004 0.000000 0.250087 -0.968223 0.000000 -0.248094 -0.968736 0.000000 0.251944 -0.967742 0.000000 0.418150 -0.908378 0.000000 -0.448264 -0.893901 0.000000 -0.971488 0.237088 0.000000 0.261146 -0.965299 0.000000 -0.359834 -0.933017 0.000000 0.394236 0.919009 0.000000 0.738822 0.673901 0.000000 -0.519777 0.854302 0.000000 -0.383093 -0.923710 0.000000 -0.206940 -0.978354 0.000000 -0.958266 -0.285879 0.000000 0.906484 0.422241 0.000000 -0.998877 -0.047379 0.000000 -0.956437 -0.291940 0.000000 -0.954382 -0.298587 0.000000 -0.801883 -0.597481 0.000000 0.634808 -0.772670 0.000000 -0.976373 -0.216094 0.000000 -0.822032 -0.569442 0.000000 -0.770468 0.637479 0.000000 -0.835322 -0.549761 0.000000 0.973551 0.228469 0.000000 -0.659760 0.751476 0.000000 -0.567994 0.823033 0.000000 0.690842 0.723006 0.000000 0.669162 0.743117 0.000000 -0.938729 0.344657 0.000000 -0.998435 0.055918 0.000000 -0.842003 0.539473 0.000000 -0.883545 0.468345 0.000000 -0.133401 0.991062 0.000000 -0.880575 0.473908 0.000000 -0.400332 0.916370 0.000000 0.347690 0.937610 0.000000 0.942134 0.335238 0.000000 0.287217 0.957866 0.000000 0.343241 0.939247 0.000000 0.829873 0.557952 0.000000 0.971919 0.235317 0.000000 0.703228 0.710964 0.000000 -0.844747 0.535165 0.000000 0.993652 0.112497 0.000000 -0.683555 0.729899 0.000000 -0.945569 0.325423 0.000000 -0.779277 0.626680 0.000000 -0.089374 0.995998 0.000000 0.986866 0.161539 0.000000 0.542983 0.839744 0.000000 -0.967595 0.252508 0.000000 -0.784259 0.620434 0.000000 -0.387923 0.921692 0.000000 0.629072 0.777347 0.000000 0.890111 -0.455743 0.000000 -0.705061 0.709147 0.000000 -0.856575 -0.516022 0.000000 -0.992397 -0.123077 0.000000 -0.583869 0.811848 0.000000 0.664410 0.747368 0.000000 -0.916105 0.400938 0.000000 -0.574100 0.818785 0.000000 0.640740 0.767758 0.000000 0.595755 0.803167 0.000000 0.799924 -0.600101 0.000000 -0.996436 -0.084358 0.000000 -0.704863 0.709343 0.000000 -0.999994 -0.003597 0.000000 0.684723 0.728804 0.000000 0.401102 -0.916033 0.000000 0.141127 -0.989991 0.000000 -0.133190 -0.991091 0.000000 0.413011 0.910726 0.000000 0.122335 -0.992489 0.000000 0.819469 -0.573124 0.000000 -0.164755 -0.986334 0.000000 0.784022 -0.620733 0.000000 0.578366 0.815777 0.000000 0.870929 -0.491409 0.000000 0.087968 -0.996123 0.000000 -0.083938 -0.996471 0.000000 0.835430 -0.549597 0.000000 -0.964891 -0.262650 0.000000 0.003499 -0.999994 0.000000 0.871036 -0.491219 0.000000 0.632182 0.774820 0.000000 0.996297 -0.085974 0.000000 0.036672 0.999327 0.000000 0.779811 -0.626015 0.000000 0.977860 0.209258 0.000000 0.955656 -0.294486 0.000000 -0.579779 -0.814773 0.000000 -0.542149 0.840282 0.000000 -0.895690 -0.444678 0.000000 -0.705747 -0.708464 0.000000 -0.762168 -0.647380 0.000000 -0.992259 -0.124184 0.000000 -0.744987 0.667078 0.000000 0.725368 0.688362 0.000000 0.342231 0.939616 0.000000 0.398350 -0.917234 0.000000 0.937565 0.347810 0.000000 0.497076 0.867707 0.000000 -0.074880 0.997193 0.000000 0.904068 0.427388 0.000000 -0.449663 0.893198 0.000000 -0.997015 0.077214 0.000000 0.320727 0.947172 0.000000 0.080526 0.996753 0.000000 -0.400282 0.916392 0.000000 0.357205 0.934026 0.000000 0.955402 0.295307 0.000000 0.997498 0.070688 0.000000 -0.816636 0.577154 0.000000 -0.994924 0.100625 0.000000 0.133760 0.991014 0.000000 -0.211602 0.977356 0.000000 0.772326 0.635226 0.000000 -0.773883 0.633329 0.000000 0.183395 0.983039 0.000000 -0.035847 0.999357 0.000000 0.825414 0.564528 0.000000 -0.768091 0.640340 0.000000 0.619882 0.784695 0.000000 -0.779692 0.626163 0.000000 0.411706 0.911317 0.000000 0.998980 0.045153 0.000000 0.952231 -0.305379 0.000000 0.624040 0.781393 0.000000 0.999255 0.038593 0.000000 -0.999866 -0.016371 0.000000 -0.973877 -0.227076 0.000000 0.568640 -0.822587 0.000000 -0.988672 -0.150095 0.000000 -0.803391 0.595452 0.000000 -0.613760 -0.789493 0.000000 -0.486257 0.873816 0.000000 0.612323 0.790608 0.000000 -0.519398 0.854533 0.000000 0.193403 -0.981119 0.000000 -0.677133 0.735861 0.000000 0.778892 0.627158 0.000000 0.416455 -0.909156 0.000000 0.969970 -0.243224 0.000000 0.648431 -0.761274 0.000000 0.620087 -0.784533 0.000000 -0.981671 0.190584 0.000000 0.141485 -0.989940 0.000000 -0.986598 -0.163173 0.000000 -0.989112 -0.147165 0.000000 0.994481 -0.104919 0.000000 0.825533 -0.564354 0.000000 -0.144351 -0.989527 0.000000 -0.068215 -0.997671 0.000000 0.425767 0.904833 0.000000 -0.396115 -0.918201 0.000000 -0.339593 -0.940572 0.000000 0.544310 -0.838884 0.000000 -0.998830 -0.048357 0.000000 0.639788 -0.768551 0.000000 -0.834830 -0.550508 0.000000 0.927721 -0.373275 0.000000 -0.995611 -0.093587 0.000000 0.974984 -0.222275 0.000000 0.662414 -0.749138 0.000000 -0.550626 -0.834752 0.000000 -0.992898 -0.118965 0.000000 0.227128 0.973865 0.000000 0.720811 -0.693132 0.000000 -0.217173 -0.976133 0.000000 0.999127 -0.041778 0.000000 0.932447 -0.361307 0.000000 0.836681 -0.547690 0.000000 -0.670772 -0.741663 0.000000 -0.924751 -0.380573 0.000000 0.663834 -0.747880 0.000000 -0.440021 0.897988 0.000000 -0.043938 0.999034 0.000000 0.216576 0.976266 0.000000 0.999059 0.043383 0.000000 -0.428111 0.903726 0.000000 -0.779411 0.626513 0.000000 0.782790 0.622286 0.000000 0.370526 0.928822 0.000000 0.791200 0.611558 0.000000 -0.999604 0.028137 0.000000 -0.583824 0.811880 0.000000 -0.665894 0.746046 0.000000 0.671700 0.740823 0.000000 0.826807 0.562486 0.000000 -0.891415 0.453188 0.000000 0.360736 0.932668 0.000000 0.546632 0.837373 0.000000 -0.721927 0.691969 0.000000 0.697254 -0.716824 0.000000 0.825356 0.564613 0.000000 0.409488 0.912316 0.000000 0.988018 0.154339 0.000000 -0.900549 0.434755 0.000000 -0.435725 0.900080 0.000000 0.824282 0.566180 0.000000 0.174226 0.984706 0.000000 -0.670953 0.741499 0.000000 -0.867504 0.497429 0.000000 0.601431 0.798925 0.000000 0.561912 0.827197 0.000000 -0.263148 0.964756 0.000000 0.444441 -0.895808 0.000000 0.704165 -0.710037 0.000000 0.708827 -0.705382 0.000000 -0.856203 0.516640 0.000000 -0.351322 0.936255 0.000000 -0.999940 0.010924 0.000000 0.402641 0.915358 0.000000 0.898396 0.439185 0.000000 -0.501060 0.865412 0.000000 0.252565 0.967580 0.000000 0.940946 0.338556 0.000000 0.954735 0.297457 0.000000 -0.300664 0.953730 0.000000 0.949195 -0.314689 0.000000 -0.980211 -0.197956 0.000000 0.411089 0.911595 0.000000 0.987055 -0.160379 0.000000 -0.986315 0.164869 0.000000 0.383612 0.923494 0.000000 0.997848 0.065577 0.000000 0.364991 -0.931011 0.000000 0.196990 -0.980406 0.000000 0.728385 0.685169 0.000000 0.423820 -0.905746 0.000000 0.099101 -0.995077 0.000000 -0.346312 -0.938120 0.000000 0.197732 -0.980256 0.000000 0.445282 -0.895390 0.000000 0.840528 0.541769 0.000000 -0.878119 -0.478443 0.000000 0.006057 -0.999982 0.000000 0.985067 -0.172169 0.000000 0.998430 -0.056007 0.000000 -0.744080 -0.668090 0.000000 -0.686014 -0.727589 0.000000 -0.670374 0.742024 0.000000 -0.042328 0.999104 0.000000 -0.641810 -0.766863 0.000000 0.530956 0.847399 0.000000 -0.875295 -0.483590 0.000000 -0.890033 -0.455897 0.000000 -0.819319 0.573337 0.000000 -0.998622 -0.052485 0.000000 -0.326838 -0.945080 0.000000 -0.672607 0.740000 0.000000 -0.756055 -0.654508 0.000000 -0.174701 -0.984621 0.000000 -0.999265 0.038325 0.000000 -0.789908 -0.613226 0.000000 0.931320 -0.364203 0.000000 0.895825 -0.444408 0.000000 -0.837759 0.546040 0.000000 -0.616073 0.787689 0.000000 0.918343 0.395786 0.000000 -0.140265 0.990114 0.000000 0.976718 0.214529 0.000000 -0.672709 0.739907 0.000000 0.759860 0.650087 0.000000 0.170167 0.985415 0.000000 -0.979927 0.199355 0.000000 -0.502221 0.864739 0.000000 0.642161 0.766570 0.000000 0.127840 0.991795 0.000000 0.787138 0.616776 0.000000 -0.479632 0.877470 0.000000 0.411774 0.911286 0.000000 -0.999960 0.008916 0.000000 -0.118279 0.992980 0.000000 0.899003 -0.437943 0.000000 -0.467085 0.884212 0.000000 -0.818225 0.574898 0.000000 0.739858 0.672763 0.000000 0.582310 0.812967 0.000000 -0.998188 0.060172 0.000000 0.967838 0.251573 0.000000 0.703812 0.710386 0.000000 -0.779063 0.626946 0.000000 0.997211 0.074637 0.000000 0.617401 0.786649 0.000000 -0.772220 0.635355 0.000000 0.837751 -0.546052 0.000000 -0.026165 -0.999658 0.000000 0.088964 -0.996035 0.000000 -0.786023 0.618198 0.000000 0.457045 0.889444 0.000000 -0.030325 0.999540 0.000000 -0.400672 0.916221 0.000000 0.931375 0.364060 0.000000 0.058932 0.998262 0.000000 0.884118 -0.467264 0.000000 -0.972344 0.233552 0.000000 0.823066 0.567946 0.000000 -0.587282 0.809383 0.000000 0.779642 0.626226 0.000000 0.999656 0.026215 0.000000 0.433829 0.900995 0.000000 0.909047 -0.416694 0.000000 -0.027446 0.999623 0.000000 0.943730 -0.330718 0.000000 0.708786 0.705423 0.000000 -0.983109 -0.183021 0.000000 0.797758 -0.602978 0.000000 0.302016 -0.953303 0.000000 -0.586848 0.809697 0.000000 -0.127853 -0.991793 0.000000 0.365763 -0.930708 0.000000 0.796527 0.604603 0.000000 0.828059 -0.560641 0.000000 0.107161 0.994242 0.000000 -0.978667 -0.205452 0.000000 0.950297 -0.311343 0.000000 0.286888 -0.957964 0.000000 0.420884 -0.907115 0.000000 -0.904621 0.426217 0.000000 -0.586912 -0.809650 0.000000 -0.627426 -0.778676 0.000000 -0.699245 0.714882 0.000000 0.815414 -0.578879 0.000000 -0.630589 -0.776117 0.000000 -0.499952 -0.866053 0.000000 -0.491231 -0.871030 0.000000 0.078656 -0.996902 0.000000 0.999860 -0.016756 0.000000 -0.404502 0.914537 0.000000 0.455478 0.890247 0.000000 -0.308332 0.951279 0.000000 -0.784034 0.620718 0.000000 0.006266 0.999980 0.000000 -0.874370 -0.485259 0.000000 0.673894 0.738828 0.000000 -0.660296 -0.751005 0.000000 0.213123 0.977025 0.000000 -0.560550 0.828121 0.000000 0.994729 0.102537 0.000000 0.951351 0.308110 0.000000 -0.866264 0.499586 0.000000 0.489650 0.871919 0.000000 -0.799873 0.600169 0.000000 0.551965 0.833868 0.000000 -0.619479 0.785014 0.000000 0.010249 0.999947 0.000000 0.258974 0.965884 0.000000 0.079409 0.996842 0.000000 -0.182303 0.983242 0.000000 -0.621961 0.783048 0.000000 0.290212 0.956962 0.000000 0.181569 0.983378 0.000000 0.737423 0.675431 0.000000 0.065963 0.997822 0.000000 -0.525646 0.850704 0.000000 -0.973491 0.228725 0.000000 -0.601849 0.798610 0.000000 0.828217 0.560407 0.000000 0.538795 0.842437 0.000000 -0.756907 0.653522 0.000000 0.626483 0.779435 0.000000 -0.799969 0.600041 0.000000 -0.894669 -0.446729 0.000000 -0.742551 0.669789 0.000000 -0.860643 0.509209 0.000000 -0.423045 0.906109 0.000000 0.675172 -0.737660 0.000000 -0.545173 -0.838324 0.000000 0.658416 0.752654 0.000000 0.663186 -0.748455 0.000000 0.269167 0.963094 0.000000 -0.918285 0.395919 0.000000 -0.946418 -0.322943 0.000000 0.254994 0.966943 0.000000 -0.931214 0.364472 0.000000 0.605559 -0.795800 0.000000 0.402961 0.915217 0.000000 -0.972848 0.231444 0.000000 -0.416324 0.909216 0.000000 0.998599 0.052915 0.000000 -0.215401 0.976526 0.000000 0.860024 0.510253 0.000000 -0.969912 0.243457 0.000000 0.799581 0.600558 0.000000 -0.240705 0.970598 0.000000 0.972437 0.233166 0.000000 -0.619591 0.784925 0.000000 0.850202 0.526457 0.000000 0.301534 0.953456 0.000000 -0.857468 0.514536 0.000000 -0.773074 0.634316 0.000000 0.877904 0.478837 0.000000 0.613473 0.789716 0.000000 0.018149 -0.999835 0.000000 -0.998157 0.060682 0.000000 0.657324 -0.753608 0.000000 0.892762 -0.450529 0.000000 -0.345655 -0.938362 0.000000 0.736344 0.676607 0.000000 0.564729 -0.825277 0.000000 0.844511 0.535539 0.000000 0.599949 0.800038 0.000000 0.776534 -0.630075 0.000000 -0.887864 -0.460107 0.000000 -0.860835 0.508884 0.000000 -0.610112 -0.792315 0.000000 -0.878723 -0.477332 0.000000 0.145838 0.989309 0.000000 -0.937225 -0.348726 0.000000 -0.581510 -0.813540 0.000000 -0.628196 -0.778055 0.000000 -0.887283 -0.461226 0.000000 0.809900 -0.586568 0.000000 0.972986 -0.230866 0.000000 0.572024 0.820237 0.000000 0.925897 -0.377776 0.000000 0.616523 -0.787337 0.000000 0.972203 -0.234141 0.000000 -0.207237 0.978291 0.000000 -0.334208 0.942499 0.000000 -0.764475 -0.644653 0.000000 -0.425350 0.905029 0.000000 0.816103 0.577906 0.000000 0.070123 0.997538 0.000000 0.212885 0.977077 0.000000 -0.288229 0.957561 0.000000 0.908493 0.417900 0.000000 -0.343796 0.939044 0.000000 -0.597371 0.801965 0.000000 0.232213 0.972665 0.000000 0.541420 0.840752 0.000000 -0.256965 0.966421 0.000000 -0.971847 0.235611 0.000000 -0.261899 0.965095 0.000000 0.370625 0.928783 0.000000 0.460188 0.887821 0.000000 -0.613638 0.789587 0.000000 0.994418 0.105515 0.000000 -0.726167 0.687518 0.000000 0.990677 0.136233 0.000000 -0.596491 0.802620 0.000000 0.883075 0.469233 0.000000 0.524932 0.851144 0.000000 0.827541 -0.561405 0.000000 0.570388 0.821375 0.000000 0.984073 0.177766 0.000000 -0.769678 0.638432 0.000000 -0.640810 0.767700 0.000000 0.807852 0.589386 0.000000 0.916278 0.400543 0.000000 0.185107 0.982718 0.000000 0.003063 -0.999995 0.000000 -0.488538 0.872543 0.000000 -0.524856 0.851191 0.000000 0.817309 0.576200 0.000000 0.767620 0.640905 0.000000 -0.894817 0.446434 0.000000 0.268121 0.963385 0.000000 -0.304855 0.952399 0.000000 -0.968796 0.247860 0.000000 0.019645 0.999807 0.000000 0.714944 0.699182 0.000000 -0.933729 0.357981 0.000000 -0.327992 0.944680 0.000000 -0.031989 0.999488 0.000000 -0.033130 0.999451 0.000000 0.561655 0.827371 0.000000 -0.999991 0.004233 0.000000 -0.884401 0.466728 0.000000 0.964800 0.262986 0.000000 0.514033 -0.857771 0.000000 0.435742 0.900071 0.000000 0.969037 -0.246916 0.000000 -0.545390 0.838182 0.000000 0.281340 0.959608 0.000000 0.992937 0.118645 0.000000 0.443905 0.896074 0.000000 0.136395 -0.990655 0.000000 -0.785283 0.619137 0.000000 -0.284687 -0.958621 0.000000 -0.079047 -0.996871 0.000000 0.851218 -0.524812 0.000000 0.680004 -0.733208 0.000000 -0.567097 -0.823651 0.000000 0.760762 0.649031 0.000000 -0.830709 0.556706 0.000000 0.810327 0.585979 0.000000 0.141323 0.989964 0.000000 0.938496 -0.345290 0.000000 -0.663493 0.748183 0.000000 -0.990981 -0.134001 0.000000 0.770337 0.637637 0.000000 0.722013 -0.691879 0.000000 0.933351 -0.358966 0.000000 -0.782395 -0.622783 0.000000 0.962236 -0.272217 0.000000 0.987899 -0.155096 0.000000 -0.966722 -0.255829 0.000000 0.686678 -0.726962 0.000000 0.421900 -0.906642 0.000000 0.451049 0.892499 0.000000 0.359741 0.933052 0.000000 -0.242143 -0.970241 0.000000 -0.500785 0.865572 0.000000 -0.673664 -0.739038 0.000000 0.825607 0.564245 0.000000 -0.983721 0.179702 0.000000 0.970033 0.242974 0.000000 -0.661899 0.749593 0.000000 0.558055 0.829804 0.000000 -0.974955 0.222402 0.000000 0.673771 0.738940 0.000000 -0.984811 -0.173630 0.000000 0.678454 -0.734643 0.000000 -0.418724 -0.908114 0.000000 -0.448659 0.893703 0.000000 -0.806604 0.591093 0.000000 -0.989252 0.146222 0.000000 0.686902 0.726750 0.000000 0.608352 0.793668 0