<?xml version='1.0'?>
<VTKFile type='UnstructuredGrid' version='0.1' byte_order='LittleEndian'><UnstructuredGrid>
<Piece NumberOfPoints='3000' NumberOfCells='0'>
<PointData Vectors='principal_stress_direction_1 principal_stress_direction_2 principal_stress_direction_3'>
<DataArray type='Float32' Name='principal_stress_direction_1' NumberOfComponents='3' format='ascii'>
0.988024 -0.154302 0.000000 -0.756072 0.654488 0.000000 0.998697 -0.051037 0.000000 0.997452 -0.071342 0.000000 0.342076 -0.939672 0.000000 0.806705 -0.590955 0.000000 -0.296436 -0.955053 0.000000 0.991001 -0.133853 0.000000 -0.038557 -0.999256 0.000000 -0.784110 -0.620622 0.000000 0.970581 -0.240776 0.000000 -0.994030 -0.109111 0.000000 -0.974451 -0.224600 0.000000 -0.905704 -0.423912 0.000000 0.879278 -0.476309 0.000000 -0.999197 0.040070 0.000000 -0.794262 0.607575 0.000000 -0.576934 0.816791 0.000000 0.999632 -0.027136 0.000000 -0.945532 -0.325529 0.000000 -0.953477 -0.301466 0.000000 -0.225121 -0.974331 0.000000 -0.987969 0.154651 0.000000 0.087702 -0.996147 0.000000 0.877199 -0.480126 0.000000 0.984115 -0.177533 0.000000 0.704124 -0.710077 0.000000 0.436444 -0.899731 0.000000 -0.307520 -0.951542 0.000000 0.576019 -0.817437 0.000000 -0.248774 -0.968562 0.000000 -0.122472 -0.992472 0.000000 -0.979502 -0.201435 0.000000 -0.643061 -0.765815 0.000000 -0.589877 -0.807493 0.000000 0.829733 -0.558160 0.000000 -0.559875 -0.828577 0.000000 0.423043 -0.906110 0.000000 0.891969 -0.452097 0.000000 0.120715 -0.992687 0.000000 -0.766972 -0.641680 0.000000 -0.747761 0.663968 0.000000 0.998885 -0.047213 0.000000 0.475474 0.879730 0.000000 -0.565413 -0.824808 0.000000 -0.825458 0.564463 0.000000 -0.953292 -0.302051 0.000000 -0.529695 -0.848188 0.000000 -0.106868 -0.994273 0.000000 0.886388 -0.462944 0.000000 0.813818 -0.581119 0.000000 0.838768 -0.544490 0.000000 0.665840 -0.746094 0.000000 0.841398 -0.540417 0.000000 0.848513 -0.529175 0.000000 -0.998647 -0.052007 0.000000 0.718540 -0.695485 0.000000 -0.990338 -0.138678 0.000000 0.475334 -0.879806 0.000000 -0.122346 -0.992488 0.000000 0.890758 -0.454479 0.000000 -0.858583 -0.512675 0.000000 -0.066235 -0.997804 0.000000 -0.414539 -0.910032 0.000000 -0.260313 -0.965524 0.000000 -0.227282 -0.973829 0.000000 -0.416302 -0.909227 0.000000 -0.282001 -0.959414 0.000000 -0.421937 -0.906625 0.000000 -0.894631 -0.446805 0.000000 -0.205715 -0.978612 0.000000 0.263952 -0.964536 0.000000 -0.743668 -0.668549 0.000000 0.992528 0.122015 0.000000 0.169709 -0.985494 0.000000 -0.995754 0.092049 0.000000 -0.698682 -0.715432 0.000000 -0.070159 -0.997536 0.000000 -0.997389 -0.072215 0.000000 -0.182056 -0.983288 0.000000 0.833764 0.552122 0.000000 0.663074 -0.748554 0.000000 -0.912099 0.409971 0.000000 0.171873 -0.985119 0.000000 -0.183052 -0.983103 0.000000 -0.822023 0.569454 0.000000 -0.843155 0.537670 0.000000 0.814830 -0.579700 0.000000 0.983924 -0.178590 0.000000 0.790499 -0.612464 0.000000 0.996578 -0.082658 0.000000 0.773388 -0.633933 0.000000 0.607897 -0.794016 0.000000 0.646956 -0.762527 0.000000 0.827854 -0.560943 0.000000 0.779852 -0.625964 0.000000 0.924971 -0.380038 0.000000 0.930254 -0.366916 0.000000 0.681552 -0.731770 0.000000 -0.697407 0.716675 0.000000 0.277512 -0.960722 0.000000 0.058486 -0.998288 0.000000 -0.134773 -0.990876 0.000000 0.132483 -0.991185 0.000000 -0.365636 -0.930758 0.000000 -0.241207 -0.970474 0.000000 0.044211 -0.999022 0.000000 -0.117626 -0.993058 0.000000 -0.222695 -0.974888 0.000000 -0.991688 -0.128669 0.000000 -0.682403 -0.730976 0.000000 -0.160178 -0.987088 0.000000 -0.416725 -0.909033 0.000000 -0.576444 -0.817137 0.000000 0.490766 -0.871292 0.000000 -0.638973 -0.769229 0.000000 -0.063800 -0.997963 0.000000 -0.489530 -0.871986 0.000000 -0.963711 -0.266947 0.000000 -0.999988 -0.004851 0.000000 -0.730329 -0.683095 0.000000 -0.547409 -0.836865 0.000000 -0.862497 -0.506062 0.000000 -0.971850 -0.235601 0.000000 0.295264 0.955416 0.000000 -0.622320 -0.782763 0.000000 0.512871 -0.858466 0.000000 -0.860997 0.508610 0.000000 0.476058 -0.879414 0.000000 -0.560898 0.827885 0.000000 0.768302 -0.640087 0.000000 0.995718 -0.092442 0.000000 0.709936 -0.704266 0.000000 0.438161 -0.898897 0.000000 0.509041 -0.860743 0.000000 -0.998070 -0.062105 0.000000 0.807814 -0.589437 0.000000 0.986605 -0.163126 0.000000 0.817081 -0.576523 0.000000 0.876122 -0.482089 0.000000 0.298720 -0.954341 0.000000 0.746970 -0.664858 0.000000 0.559957 -0.828522 0.000000 0.368016 -0.929820 0.000000 0.468338 -0.883549 0.000000 0.402549 -0.915398 0.000000 0.592773 -0.805370 0.000000 0.349260 -0.937026 0.000000 -0.043339 -0.999060 0.000000 0.592407 0.805639 0.000000 0.109245 0.994015 0.000000 0.698992 -0.715130 0.000000 0.454726 -0.890631 0.000000 0.513685 -0.857979 0.000000 -0.549266 -0.835647 0.000000 0.176707 -0.984264 0.000000 0.206890 -0.978364 0.000000 -0.502836 -0.864382 0.000000 -0.273520 -0.961866 0.000000 -0.884765 -0.466037 0.000000 -0.950451 -0.310875 0.000000 -0.158730 -0.987322 0.000000 -0.336363 -0.941732 0.000000 -0.419359 -0.907820 0.000000 -0.120564 -0.992706 0.000000 -0.238253 -0.971203 0.000000 0.005104 -0.999987 0.000000 -0.176056 -0.984380 0.000000 0.278050 -0.960567 0.000000 0.810131 -0.586248 0.000000 0.963920 -0.266193 0.000000 -0.963685 -0.267041 0.000000 -0.325228 -0.945636 0.000000 0.176448 0.984310 0.000000 0.323132 -0.946354 0.000000 0.104422 -0.994533 0.000000 0.721670 -0.692238 0.000000 -0.862144 -0.506664 0.000000 -0.642284 -0.766467 0.000000 -0.939148 -0.343514 0.000000 0.984738 -0.174046 0.000000 -0.866781 0.498689 0.000000 0.490187 -0.871617 0.000000 0.761814 -0.647796 0.000000 -0.902802 -0.430056 0.000000 -0.042109 -0.999113 0.000000 0.689873 0.723930 0.000000 -0.024902 -0.999690 0.000000 0.989803 -0.142443 0.000000 0.843922 -0.536465 0.000000 0.667039 -0.745023 0.000000 0.746596 -0.665278 0.000000 -0.236153 -0.971716 0.000000 0.126567 -0.991958 0.000000 -0.974517 -0.224313 0.000000 0.999991 -0.004206 0.000000 0.094855 -0.995491 0.000000 -0.086841 -0.996222 0.000000 0.767872 -0.640603 0.000000 0.031875 -0.999492 0.000000 -0.012351 -0.999924 0.000000 -0.155176 -0.987887 0.000000 0.439142 -0.898418 0.000000 -0.899448 -0.437028 0.000000 0.949796 -0.312870 0.000000 0.710736 -0.703458 0.000000 0.687174 -0.726493 0.000000 0.626362 -0.779532 0.000000 0.784135 -0.620590 0.000000 0.633807 -0.773491 0.000000 0.597054 -0.802201 0.000000 0.553084 -0.833126 0.000000 0.981372 -0.192117 0.000000 0.929047 -0.369962 0.000000 -0.732632 -0.680625 0.000000 -0.695424 -0.718600 0.000000 0.381050 0.924555 0.000000 -0.502042 -0.864843 0.000000 0.603971 -0.797006 0.000000 -0.268707 -0.963222 0.000000 -0.547892 -0.836549 0.000000 0.131972 -0.991253 0.000000 -0.475799 -0.879554 0.000000 0.367922 -0.929857 0.000000 0.381028 -0.924563 0.000000 0.094162 -0.995557 0.000000 0.664722 -0.747091 0.000000 -0.856755 -0.515724 0.000000 -0.353540 -0.935419 0.000000 -0.902277 -0.431157 0.000000 0.846146 -0.532952 0.000000 0.942903 -0.333068 0.000000 -0.782675 -0.622430 0.000000 -0.096440 -0.995339 0.000000 -0.960309 -0.278940 0.000000 -0.930622 0.365982 0.000000 0.880095 -0.474798 0.000000 -0.811885 -0.583817 0.000000 -0.283869 -0.958863 0.000000 0.972721 -0.231977 0.000000 -0.307005 -0.951708 0.000000 -0.680580 -0.732674 0.000000 0.987256 -0.159141 0.000000 -0.702463 -0.711720 0.000000 0.272902 -0.962042 0.000000 0.211725 0.977329 0.000000 0.051896 -0.998653 0.000000 0.641004 -0.767537 0.000000 0.043402 -0.999058 0.000000 0.931306 -0.364237 0.000000 -0.976516 -0.215446 0.000000 0.658414 -0.752656 0.000000 0.776349 -0.630303 0.000000 -0.644110 -0.764933 0.000000 -0.564667 -0.825319 0.000000 -0.075346 -0.997157 0.000000 -0.337651 -0.941271 0.000000 0.199615 -0.979874 0.000000 -0.497086 -0.867701 0.000000 -0.291012 -0.956719 0.000000 -0.525209 -0.850973 0.000000 -0.615324 -0.788274 0.000000 -0.864888 -0.501964 0.000000 0.969055 -0.246843 0.000000 0.876596 -0.481227 0.000000 0.971797 -0.235821 0.000000 0.668825 -0.743420 0.000000 0.810466 -0.585786 0.000000 0.726641 -0.687017 0.000000 0.861579 -0.507623 0.000000 -0.968013 -0.250899 0.000000 0.643209 -0.765691 0.000000 0.959312 -0.282348 0.000000 0.072263 -0.997386 0.000000 -0.970303 -0.241893 0.000000 -0.890490 -0.455003 0.000000 -0.156149 -0.987733 0.000000 0.086683 -0.996236 0.000000 -0.884396 -0.466738 0.000000 -0.300785 -0.953692 0.000000 -0.495380 -0.868677 0.000000 -0.884624 -0.466304 0.000000 -0.759829 -0.650124 0.000000 0.891382 -0.453252 0.000000 -0.965129 -0.261774 0.000000 -0.977637 -0.210301 0.000000 -0.994881 -0.101052 0.000000 -0.934071 -0.357086 0.000000 -0.845820 -0.533468 0.000000 0.949124 -0.314903 0.000000 -0.774444 -0.632643 0.000000 -0.724379 -0.689402 0.000000 -0.530390 -0.847754 0.000000 -0.472560 -0.881299 0.000000 -0.648902 -0.760872 0.000000 -0.999909 -0.013474 0.000000 0.938687 -0.344771 0.000000 -0.716781 -0.697298 0.000000 -0.945596 -0.325342 0.000000 -0.988951 -0.148241 0.000000 -0.852542 -0.522658 0.000000 0.908102 0.418749 0.000000 0.324220 -0.945982 0.000000 -0.636904 -0.770943 0.000000 -0.900357 -0.435151 0.000000 -0.051577 -0.998669 0.000000 -0.243564 -0.969885 0.000000 0.109226 -0.994017 0.000000 -0.025018 -0.999687 0.000000 0.330646 -0.943755 0.000000 -0.823079 0.567927 0.000000 0.344593 0.938752 0.000000 0.604115 -0.796897 0.000000 0.741443 -0.671016 0.000000 0.930038 -0.367463 0.000000 -0.032596 -0.999469 0.000000 -0.706353 -0.707860 0.000000 0.977847 -0.209321 0.000000 -0.033917 -0.999425 0.000000 0.190719 -0.981645 0.000000 0.363895 -0.931440 0.000000 -0.937014 -0.349291 0.000000 -0.833315 -0.552798 0.000000 0.984481 -0.175492 0.000000 -0.912180 -0.409790 0.000000 -0.994459 -0.105123 0.000000 -0.997036 -0.076937 0.000000 -0.980613 -0.195953 0.000000 0.971384 -0.237515 0.000000 0.987097 -0.160126 0.000000 0.952027 -0.306013 0.000000 0.827590 -0.561334 0.000000 0.864662 -0.502355 0.000000 0.930707 -0.365767 0.000000 -0.660965 -0.750416 0.000000 0.992348 -0.123470 0.000000 -0.093262 -0.995642 0.000000 -0.322951 -0.946416 0.000000 -0.999275 -0.038070 0.000000 -0.489865 -0.871798 0.000000 -0.240901 -0.970550 0.000000 -0.404461 -0.914555 0.000000 0.338733 -0.940883 0.000000 0.271736 -0.962372 0.000000 -0.973428 -0.228991 0.000000 0.283242 -0.959048 0.000000 -0.554645 -0.832087 0.000000 -0.908785 -0.417266 0.000000 0.999341 -0.036292 0.000000 -0.967942 -0.251175 0.000000 -0.999971 -0.007678 0.000000 -0.972099 -0.234571 0.000000 0.999331 -0.036560 0.000000 -0.899156 -0.437629 0.000000 -0.696708 -0.717355 0.000000 -0.153645 -0.988126 0.000000 -0.974749 -0.223302 0.000000 -0.556336 -0.830958 0.000000 -0.832956 -0.553339 0.000000 -0.155284 -0.987870 0.000000 -0.507528 0.861635 0.000000 -0.309255 -0.950979 0.000000 -0.708525 -0.705685 0.000000 -0.903690 -0.428188 0.000000 -0.236792 -0.971560 0.000000 -0.587107 -0.809510 0.000000 -0.680345 0.732892 0.000000 -0.492983 0.870039 0.000000 -0.377054 -0.926191 0.000000 0.983101 -0.183063 0.000000 -0.349526 -0.936927 0.000000 0.351874 0.936048 0.000000 -0.489008 -0.872279 0.000000 0.027806 -0.999613 0.000000 -0.094014 -0.995571 0.000000 -0.999654 0.026310 0.000000 -0.505002 0.863118 0.000000 -0.090552 -0.995892 0.000000 -0.639628 -0.768684 0.000000 0.948198 -0.317679 0.000000 0.865176 -0.501468 0.000000 -0.970412 -0.241456 0.000000 -0.958839 -0.283951 0.000000 -0.375266 -0.926917 0.000000 0.792861 -0.609402 0.000000 0.424754 -0.905309 0.000000 -0.616719 -0.787183 0.000000 0.340113 -0.940384 0.000000 0.835178 -0.549980 0.000000 0.904178 -0.427155 0.000000 0.919605 -0.392845 0.000000 0.856070 -0.516860 0.000000 0.996131 -0.087884 0.000000 -0.964875 -0.262710 0.000000 0.992732 -0.120349 0.000000 0.945411 -0.325880 0.000000 0.998173 -0.060423 0.000000 -0.998226 -0.059533 0.000000 0.996879 -0.078948 0.000000 0.999251 -0.038692 0.000000 0.919055 -0.394130 0.000000 0.644678 -0.764454 0.000000 -0.509098 -0.860709 0.000000 0.783052 -0.621956 0.000000 -0.482229 -0.876045 0.000000 -0.556401 -0.830914 0.000000 -0.711895 -0.702286 0.000000 -0.302565 -0.953129 0.000000 -0.949177 -0.314742 0.000000 -0.040281 -0.999188 0.000000 0.279570 -0.960125 0.000000 -0.877069 -0.480364 0.000000 0.029240 -0.999572 0.000000 -0.744146 -0.668017 0.000000 -0.799822 -0.600237 0.000000 -0.870701 -0.491812 0.000000 -0.931547 -0.363621 0.000000 0.999695 -0.024680 0.000000 -0.992223 -0.124477 0.000000 -0.997513 -0.070479 0.000000 -0.975235 -0.221171 0.000000 -0.921891 -0.387449 0.000000 -0.948732 -0.316081 0.000000 -0.907405 -0.420257 0.000000 -0.913577 -0.406666 0.000000 0.995490 -0.094867 0.000000 -0.588635 -0.808399 0.000000 0.677445 -0.735574 0.000000 -0.999853 -0.017139 0.000000 -0.503591 -0.863942 0.000000 0.505416 0.862876 0.000000 -0.377801 0.925887 0.000000 0.171435 -0.985195 0.000000 -0.320408 -0.947280 0.000000 0.218942 0.975738 0.000000 -0.625922 -0.779885 0.000000 -0.755291 0.655389 0.000000 -0.306744 -0.951792 0.000000 0.239143 0.970984 0.000000 -0.625903 0.779901 0.000000 0.538420 0.842677 0.000000 0.715367 -0.698749 0.000000 -0.998425 -0.056111 0.000000 -0.425521 -0.904949 0.000000 0.047553 -0.998869 0.000000 0.999521 -0.030963 0.000000 0.616283 -0.787525 0.000000 0.965021 -0.262173 0.000000 0.308529 -0.951215 0.000000 0.136100 0.990695 0.000000 0.883087 -0.469209 0.000000 0.378935 -0.925423 0.000000 0.997785 -0.066520 0.000000 0.032604 -0.999468 0.000000 0.866863 -0.498547 0.000000 -0.540674 -0.841232 0.000000 0.626509 -0.779414 0.000000 0.815435 -0.578849 0.000000 0.858154 -0.513392 0.000000 0.964604 -0.263701 0.000000 0.923895 -0.382645 0.000000 0.998063 -0.062211 0.000000 0.939424 -0.342756 0.000000 0.926182 -0.377078 0.000000 0.978173 -0.207791 0.000000 0.957173 -0.289516 0.000000 0.989302 -0.145880 0.000000 0.908544 -0.417790 0.000000 0.970276 -0.242003 0.000000 -0.991629 -0.129123 0.000000 0.999532 -0.030589 0.000000 -0.953007 -0.302948 0.000000 -0.680334 -0.732902 0.000000 0.429405 -0.903112 0.000000 0.436188 -0.899856 0.000000 0.616263 -0.787540 0.000000 0.495459 -0.868631 0.000000 0.999972 -0.007465 0.000000 -0.230853 -0.972989 0.000000 -0.767289 -0.641302 0.000000 -0.056625 -0.998396 0.000000 -0.579485 -0.814983 0.000000 -0.141442 -0.989946 0.000000 -0.122698 -0.992444 0.000000 -0.806337 -0.591456 0.000000 0.782935 -0.622104 0.000000 -0.994796 -0.101886 0.000000 -0.869731 -0.493527 0.000000 0.999892 -0.014702 0.000000 0.990940 -0.134307 0.000000 -0.911502 -0.411296 0.000000 -0.886481 -0.462765 0.000000 -0.936845 -0.349746 0.000000 0.934650 -0.355569 0.000000 0.999764 -0.021715 0.000000 0.980795 -0.195043 0.000000 -0.947377 -0.320120 0.000000 0.548068 0.836434 0.000000 0.171030 0.985266 0.000000 -0.915802 -0.401631 0.000000 -0.293188 -0.956055 0.000000 0.543516 -0.839399 0.000000 -0.567669 -0.823257 0.000000 -0.933846 -0.357674 0.000000 0.129063 0.991636 0.000000 0.024354 -0.999703 0.000000 -0.740910 -0.671604 0.000000 0.390375 -0.920656 0.000000 -0.606972 -0.794723 0.000000 0.887334 -0.461127 0.000000 -0.712552 0.701619 0.000000 0.400337 0.916368 0.000000 -0.036728 -0.999325 0.000000 0.582791 -0.812622 0.000000 -0.524503 0.851408 0.000000 -0.996702 -0.081148 0.000000 0.670130 -0.742244 0.000000 0.776734 -0.629828 0.000000 -0.999828 0.018550 0.000000 -0.472685 -0.881232 0.000000 -0.916537 -0.399949 0.000000 0.942115 -0.335290 0.000000 0.953827 -0.300356 0.000000 -0.501894 0.864929 0.000000 -0.837727 -0.546089 0.000000 0.983972 -0.178322 0.000000 -0.965048 -0.262074 0.000000 -0.995916 -0.090288 0.000000 -0.985513 -0.169597 0.000000 0.960973 -0.276641 0.000000 -0.770268 -0.637720 0.000000 -0.947758 -0.318991 0.000000 0.981768 -0.190085 0.000000 0.962276 -0.272074 0.000000 0.938748 -0.344605 0.000000 0.938923 -0.344126 0.000000 0.941463 -0.337116 0.000000 0.972630 -0.232361 0.000000 0.961815 -0.273700 0.000000 0.991799 -0.127807 0.000000 0.967052 -0.254578 0.000000 0.998576 -0.053348 0.000000 -0.995138 -0.098486 0.000000 -0.908480 -0.417927 0.000000 -0.856661 -0.515880 0.000000 -0.745240 -0.666796 0.000000 0.943288 -0.331977 0.000000 0.492907 -0.870082 0.000000 -0.405075 -0.914283 0.000000 0.728988 0.684527 0.000000 0.793178 -0.608990 0.000000 -0.222168 -0.975008 0.000000 -0.310617 -0.950535 0.000000 0.030892 -0.999523 0.000000 -0.995414 -0.095665 0.000000 -0.334538 -0.942382 0.000000 -0.048025 -0.998846 0.000000 0.034712 -0.999397 0.000000 0.276434 -0.961033 0.000000 -0.013156 -0.999913 0.000000 0.993598 -0.112975 0.000000 0.950893 -0.309518 0.000000 -0.974498 -0.224395 0.000000 0.972722 -0.231975 0.000000 -0.809998 -0.586433 0.000000 -0.836073 -0.548618 0.000000 -0.316422 -0.948619 0.000000 -0.910195 -0.414180 0.000000 -0.481090 -0.876671 0.000000 0.976936 -0.213534 0.000000 0.028844 0.999584 0.000000 0.125308 -0.992118 0.000000 0.332241 -0.943195 0.000000 0.962092 -0.272727 0.000000 -0.627427 -0.778675 0.000000 -0.308358 0.951270 0.000000 -0.848846 -0.528640 0.000000 -0.821087 -0.570803 0.000000 -0.586572 -0.809897 0.000000 0.461910 0.886927 0.000000 0.933947 0.357411 0.000000 -0.397637 -0.917543 0.000000 0.999622 -0.027499 0.000000 -0.784807 0.619740 0.000000 0.995076 -0.099111 0.000000 0.899157 -0.437626 0.000000 0.984107 -0.177574 0.000000 0.213876 -0.976861 0.000000 -0.373168 0.927764 0.000000 -0.580727 -0.814098 0.000000 0.930049 0.367436 0.000000 0.664395 -0.747382 0.000000 -0.525026 0.851086 0.000000 0.497522 -0.867451 0.000000 -0.954352 -0.298684 0.000000 -0.003049 -0.999995 0.000000 0.897010 -0.442011 0.000000 0.459352 -0.888254 0.000000 -0.735803 -0.677195 0.000000 0.948654 -0.316317 0.000000 0.981227 -0.192856 0.000000 0.842400 -0.538853 0.000000 0.977565 -0.210633 0.000000 0.997560 -0.069815 0.000000 -0.983196 -0.182554 0.000000 -0.918965 -0.394340 0.000000 -0.952133 -0.305684 0.000000 0.952632 -0.304125 0.000000 0.927958 -0.372684 0.000000 0.996282 -0.086146 0.000000 0.955256 -0.295779 0.000000 0.935176 -0.354183 0.000000 0.985475 -0.169821 0.000000 0.972373 -0.233432 0.000000 0.977682 -0.210089 0.000000 -0.981016 -0.193926 0.000000 -0.995305 -0.096789 0.000000 -0.922623 -0.385703 0.000000 -0.787311 -0.616556 0.000000 -0.848953 -0.528468 0.000000 -0.927375 -0.374133 0.000000 -0.798511 -0.601980 0.000000 -0.836412 -0.548102 0.000000 -0.963444 -0.267908 0.000000 -0.410708 -0.911767 0.000000 -0.994295 -0.106663 0.000000 0.938878 -0.344249 0.000000 0.090244 -0.995920 0.000000 -0.918276 -0.395942 0.000000 -0.589844 -0.807517 0.000000 -0.984440 -0.175721 0.000000 -0.529406 -0.848369 0.000000 0.856620 -0.515949 0.000000 -0.518284 -0.855209 0.000000 -0.608898 -0.793248 0.000000 0.009849 -0.999952 0.000000 0.729847 -0.683610 0.000000 -0.984943 -0.172877 0.000000 -0.127170 -0.991881 0.000000 0.034402 -0.999408 0.000000 0.971545 -0.236857 0.000000 0.995177 -0.098094 0.000000 -0.864915 -0.501919 0.000000 0.895053 -0.445960 0.000000 0.934533 0.355877 0.000000 -0.283908 -0.958852 0.000000 -0.914372 -0.404875 0.000000 0.729300 0.684194 0.000000 0.999155 0.041099 0.000000 -0.904840 0.425752 0.000000 -0.492440 0.870346 0.000000 0.373240 0.927735 0.000000 -0.999080 -0.042887 0.000000 -0.997048 -0.076779 0.000000 -0.811369 0.584535 0.000000 -0.266026 -0.963966 0.000000 -0.842402 -0.538849 0.000000 0.025793 -0.999667 0.000000 -0.491637 0.870800 0.000000 -0.138890 0.990308 0.000000 0.811973 -0.583695 0.000000 0.848651 -0.528953 0.000000 -0.999424 -0.033950 0.000000 -0.368905 -0.929467 0.000000 0.898797 -0.438365 0.000000 0.134352 -0.990934 0.000000 0.057208 -0.998362 0.000000 -0.521544 -0.853225 0.000000 0.667229 -0.744853 0.000000 -0.002755 0.999996 0.000000 -0.786810 -0.617195 0.000000 -0.686376 -0.727247 0.000000 0.970180 -0.242387 0.000000 0.151685 -0.988429 0.000000 -0.950171 -0.311729 0.000000 0.917744 -0.397173 0.000000 -0.930568 -0.366120 0.000000 0.845608 -0.533804 0.000000 -0.995736 -0.092252 0.000000 0.141490 -0.989940 0.000000 0.968072 -0.250673 0.000000 0.868055 -0.496467 0.000000 0.983697 -0.179834 0.000000 0.943529 -0.331289 0.000000 0.995444 -0.095346 0.000000 0.934317 -0.356442 0.000000 0.947154 -0.320779 0.000000 0.965329 -0.261038 0.000000 0.913750 -0.406278 0.000000 0.932338 -0.361589 0.000000 -0.999271 -0.038179 0.000000 0.899116 -0.437711 0.000000 -0.923595 -0.383369 0.000000 0.966343 -0.257257 0.000000 -0.833861 -0.551974 0.000000 -0.823317 -0.567581 0.000000 -0.930379 -0.366600 0.000000 -0.950449 -0.310879 0.000000 -0.782401 -0.622775 0.000000 0.999828 -0.018536 0.000000 -0.960182 -0.279374 0.000000 -0.477491 -0.878637 0.000000 -0.030669 -0.999530 0.000000 -0.265581 -0.964088 0.000000 0.509794 -0.860297 0.000000 0.996292 -0.086038 0.000000 0.984266 0.176691 0.000000 -0.362474 -0.931994 0.000000 -0.883687 -0.468078 0.000000 0.961310 -0.275468 0.000000 -0.362693 -0.931909 0.000000 -0.268117 -0.963386 0.000000 -0.864163 -0.503212 0.000000 0.995270 -0.097148 0.000000 0.744275 -0.667873 0.000000 0.983372 -0.181605 0.000000 -0.564425 -0.825484 0.000000 -0.770326 -0.637650 0.000000 -0.095345 0.995444 0.000000 -0.401212 -0.915985 0.000000 -0.569251 -0.822164 0.000000 0.525660 -0.850695 0.000000 -0.466281 0.884637 0.000000 0.640112 -0.768282 0.000000 -0.993179 -0.116603 0.000000 0.414241 0.910167 0.000000 -0.441737 -0.897145 0.000000 0.701391 -0.712777 0.000000 0.367781 0.929913 0.000000 -0.794343 -0.607469 0.000000 -0.410011 -0.912081 0.000000 -0.972258 -0.233913 0.000000 -0.186378 -0.982478 0.000000 0.980926 -0.194382 0.000000 -0.935698 -0.352802 0.000000 0.999999 -0.001288 0.000000 0.556913 -0.830571 0.000000 0.803695 -0.595042 0.000000 -0.668010 -0.744153 0.000000 -0.997427 -0.071691 0.000000 0.112610 -0.993639 0.000000 0.280966 -0.959718 0.000000 -0.802234 0.597009 0.000000 0.661331 0.750094 0.000000 0.490756 -0.871297 0.000000 -0.505710 -0.862704 0.000000 -0.685451 -0.728118 0.000000 -0.774687 0.632344 0.000000 0.995648 -0.093198 0.000000 -0.204000 -0.978971 0.000000 -0.735518 -0.677505 0.000000 -0.552598 -0.833448 0.000000 0.854853 -0.518871 0.000000 0.166460 -0.986048 0.000000 -0.908564 -0.417746 0.000000 0.951981 -0.306158 0.000000 -0.746036 -0.665905 0.000000 0.971012 -0.239030 0.000000 -0.583340 -0.812228 0.000000 0.638798 -0.769374 0.000000 0.891275 -0.453463 0.000000 0.835284 -0.549819 0.000000 0.953666 -0.300866 0.000000 0.901321 -0.433152 0.000000 0.743090 -0.669191 0.000000 0.794481 -0.607289 0.000000 0.786445 -0.617660 0.000000 0.831294 -0.555834 0.000000 -0.151632 -0.988437 0.000000 -0.488773 -0.872411 0.000000 -0.840367 -0.542018 0.000000 -0.710592 -0.703604 0.000000 -0.961515 -0.274754 0.000000 0.033026 -0.999455 0.000000 -0.998768 -0.049614 0.000000 0.091007 -0.995850 0.000000 -0.437001 -0.899461 0.000000 0.950878 -0.309566 0.000000 -0.538315 -0.842744 0.000000 0.644642 -0.764485 0.000000 0.463022 -0.886347 0.000000 0.950225 -0.311563 0.000000 -0.155452 -0.987843 0.000000 -0.007014 0.999975 0.000000 0.477360 -0.878708 0.000000 0.631635 -0.775266 0.000000 0.061405 -0.998113 0.000000 0.284527 -0.958668 0.000000 -0.458687 -0.888598 0.000000 -0.937489 -0.348016 0.000000 -0.553654 -0.832747 0.000000 0.258445 -0.966026 0.000000 0.698208 -0.715894 0.000000 0.772599 -0.634894 0.000000 -0.984637 -0.174615 0.000000 -0.881640 0.471923 0.000000 -0.999260 -0.038454 0.000000 -0.896778 -0.442481 0.000000 0.239901 -0.970797 0.000000 0.030476 -0.999535 0.000000 -0.402825 -0.915277 0.000000 -0.991405 0.130826 0.000000 -0.468213 -0.883616 0.000000 -0.894219 0.447629 0.000000 0.107300 -0.994227 0.000000 -0.753744 -0.657168 0.000000 -0.027886 -0.999611 0.000000 -0.295119 0.955461 0.000000 -0.937553 0.347843 0.000000 -0.570260 -0.821465 0.000000 0.999265 -0.038333 0.000000 0.987305 -0.158839 0.000000 -0.561426 0.827527 0.000000 -0.271114 -0.962547 0.000000 0.995553 -0.094200 0.000000 0.975411 -0.220395 0.000000 -0.018985 -0.999820 0.000000 -0.472811 0.881164 0.000000 0.614429 -0.788972 0.000000 0.240660 -0.970609 0.000000 0.389923 0.920848 0.000000 0.157971 -0.987444 0.000000 0.622353 -0.782737 0.000000 0.111106 -0.993809 0.000000 0.512490 -0.858693 0.000000 0.388539 -0.921432 0.000000 -0.718616 -0.695407 0.000000 -0.313437 -0.949609 0.000000 0.963921 -0.266187 0.000000 -0.101809 -0.994804 0.000000 0.404577 -0.914504 0.000000 0.004355 -0.999991 0.000000 -0.230629 -0.973042 0.000000 0.338048 -0.941129 0.000000 0.214669 -0.976687 0.000000 -0.997832 -0.065808 0.000000 -0.287778 -0.957697 0.000000 0.032892 -0.999459 0.000000 -0.601785 -0.798658 0.000000 0.085434 -0.996344 0.000000 0.530073 -0.847952 0.000000 -0.149613 -0.988745 0.000000 0.331109 -0.943592 0.000000 0.578583 -0.815623 0.000000 0.553955 -0.832547 0.000000 0.159721 -0.987162 0.000000 0.679145 -0.734004 0.000000 0.384251 -0.923228 0.000000 0.448108 -0.893980 0.000000 -0.947308 -0.320325 0.000000 -0.995467 -0.095110 0.000000 0.994948 -0.100388 0.000000 -0.394470 -0.918909 0.000000 0.989547 -0.144213 0.000000 0.971062 -0.238827 0.000000 0.990180 -0.139799 0.000000 -0.504265 -0.863549 0.000000 0.889354 -0.457220 0.000000 -0.913849 -0.406055 0.000000 -0.998484 -0.055051 0.000000 0.638725 -0.769435 0.000000 -0.984175 -0.177200 0.000000 0.989990 -0.141137 0.000000 -0.877885 -0.478871 0.000000 -0.999446 -0.033289 0.000000 0.647226 -0.762298 0.000000 0.891368 -0.453280 0.000000 0.607745 -0.794132 0.000000 0.693646 -0.720316 0.000000 0.794109 -0.607775 0.000000 0.701200 -0.712964 0.000000 0.992931 -0.118693 0.000000 0.948655 -0.316314 0.000000 -0.965567 -0.260156 0.000000 0.970062 -0.242856 0.000000 0.793952 -0.607980 0.000000 0.914182 -0.405304 0.000000 -0.858237 -0.513254 0.000000 -0.887338 -0.461120 0.000000 -0.584429 -0.811445 0.000000 -0.598376 -0.801216 0.000000 -0.718001 -0.696042 0.000000 -0.109175 -0.994022 0.000000 0.771992 -0.635633 0.000000 0.874893 -0.484317 0.000000 -0.659532 -0.751677 0.000000 -0.909938 -0.414744 0.000000 -0.922977 -0.384855 0.000000 0.970799 -0.239895 0.000000 0.954401 0.298528 0.000000 -0.687060 0.726601 0.000000 -0.522713 -0.852509 0.000000 0.088897 0.996041 0.000000 0.999733 -0.023112 0.000000 -0.548271 -0.836301 0.000000 -0.515424 -0.856936 0.000000 0.937520 0.347933 0.000000 -0.580186 0.814484 0.000000 0.939622 -0.342213 0.000000 -0.401656 0.915791 0.000000 0.959858 0.280486 0.000000 -0.032567 -0.999470 0.000000 -0.098200 -0.995167 0.000000 0.632872 -0.774257 0.000000 0.479580 -0.877498 0.000000 -0.110698 -0.993854 0.000000 -0.473045 -0.881039 0.000000 -0.567154 -0.823612 0.000000 -0.056410 -0.998408 0.000000 -0.369418 -0.929263 0.000000 0.596631 0.802516 0.000000 0.933469 0.358658 0.000000 0.634690 0.772767 0.000000 -0.957825 -0.287353 0.000000 0.216603 -0.976260 0.000000 -0.326395 -0.945234 0.000000 -0.878705 -0.477366 0.000000 0.236040 -0.971743 0.000000 0.931980 -0.362509 0.000000 0.535710 -0.844402 0.000000 0.102198 -0.994764 0.000000 -0.423700 -0.905803 0.000000 0.476535 -0.879156 0.000000 -0.288608 -0.957447 0.000000 0.392734 -0.919652 0.000000 0.092052 -0.995754 0.000000 0.353190 -0.935552 0.000000 0.158307 -0.987390 0.000000 0.245112 -0.969495 0.000000 0.804530 -0.593913 0.000000 -0.134206 -0.990953 0.000000 -0.363876 -0.931447 0.000000 -0.967988 -0.250995 0.000000 -0.957050 -0.289922 0.000000 -0.975936 -0.218057 0.000000 0.991005 -0.133824 0.000000 0.807712 -0.589578 0.000000 0.917937 -0.396727 0.000000 0.788780 -0.614675 0.000000 -0.962803 -0.270204 0.000000 0.961893 -0.273425 0.000000 0.935403 -0.353585 0.000000 -0.961682 -0.274167 0.000000 -0.985754 -0.168194 0.000000 -0.996323 -0.085677 0.000000 -0.766726 -0.641974 0.000000 0.806619 -0.591072 0.000000 -0.519492 -0.854476 0.000000 0.121031 -0.992649 0.000000 0.474415 -0.880301 0.000000 0.245136 -0.969489 0.000000 0.733530 -0.679657 0.000000 0.424952 -0.905216 0.000000 -0.686352 -0.727269 0.000000 0.327280 -0.944927 0.000000 -0.945672 -0.325122 0.000000 0.935425 -0.353525 0.000000 -0.996835 -0.079492 0.000000 -0.992900 -0.118953 0.000000 0.999851 -0.017270 0.000000 0.974571 -0.224079 0.000000 0.644149 -0.764900 0.000000 0.445726 -0.895170 0.000000 -0.111745 -0.993737 0.000000 -0.438606 0.898680 0.000000 -0.651957 -0.758256 0.000000 -0.935549 -0.353197 0.000000 -0.316469 -0.948603 0.000000 0.040053 -0.999198 0.000000 -0.982410 -0.186739 0.000000 -0.097759 -0.995210 0.000000 0.980190 -0.198057 0.000000 -0.124108 -0.992269 0.000000 0.585962 -0.810338 0.000000 -0.426971 0.904265 0.000000 0.084314 -0.996439 0.000000 0.242960 0.970036 0.000000 0.921329 -0.388783 0.000000 -0.821539 -0.570152 0.000000 -0.645948 0.763381 0.000000 0.259122 -0.965845 0.000000 0.488963 -0.872304 0.000000 0.914697 0.404141 0.000000 0.749816 -0.661646 0.000000 0.253791 -0.967259 0.000000 -0.468093 -0.883679 0.000000 -0.449562 -0.893249 0.000000 -0.935733 0.352708 0.000000 -0.748782 0.662816 0.000000 -0.804170 -0.594400 0.000000 -0.572128 -0.820165 0.000000 -0.879894 -0.475169 0.000000 0.345271 -0.938503 0.000000 -0.052448 -0.998624 0.000000 -0.394545 0.918877 0.000000 -0.177015 -0.984208 0.000000 0.166675 -0.986012 0.000000 -0.456090 -0.889933 0.000000 0.242355 -0.970188 0.000000 0.807288 -0.590157 0.000000 0.475953 -0.879471 0.000000 0.262447 -0.964946 0.000000 0.885317 -0.464989 0.000000 -0.023086 -0.999733 0.000000 0.713652 -0.700501 0.000000 -0.503800 -0.863820 0.000000 0.744106 -0.668062 0.000000 0.720339 -0.693623 0.000000 -0.101485 -0.994837 0.000000 0.906339 -0.422551 0.000000 0.664027 -0.747708 0.000000 0.954935 -0.296816 0.000000 0.249540 -0.968365 0.000000 -0.851083 -0.525032 0.000000 -0.999988 -0.004882 0.000000 0.649375 -0.760468 0.000000 0.983642 -0.180135 0.000000 0.995530 -0.094441 0.000000 0.999726 -0.023428 0.000000 -0.997712 -0.067608 0.000000 -0.990841 -0.135036 0.000000 -0.305390 -0.952227 0.000000 -0.649592 -0.760283 0.000000 -0.578900 -0.815399 0.000000 -0.595070 -0.803674 0.000000 0.290924 -0.956746 0.000000 -0.764568 -0.644543 0.000000 -0.311654 -0.950196 0.000000 -0.152304 -0.988334 0.000000 -0.060343 -0.998178 0.000000 -0.575000 -0.818153 0.000000 -0.021336 -0.999772 0.000000 0.789832 -0.613323 0.000000 -0.010201 -0.999948 0.000000 0.157307 -0.987550 0.000000 0.545131 -0.838351 0.000000 0.663131 -0.748503 0.000000 0.013365 -0.999911 0.000000 -0.209606 0.977786 0.000000 0.119213 0.992869 0.000000 0.912212 -0.409718 0.000000 0.669167 -0.743112 0.000000 0.757546 -0.652781 0.000000 -0.74907