<?xml version='1.0'?>
<VTKFile type='PolyData' version='0.1' byte_order='LittleEndian'><PolyData>
<Piece NumberOfPoints='9000' NumberOfVerts='0' NumberOfLines='0' NumberOfStrips='0' NumberOfPolys='3000'>
<Points>
<DataArray type='Float32' NumberOfComponents='3' format='ascii'>
10.731273 49.004164 0.000000 7.713342 49.616903 0.000000 8.853713 47.500498 0.000000 4.599015 49.877563 0.000000 6.545659 47.174902 0.000000 7.662997 49.568721 0.000000 8.882984 47.398100 0.000000 7.673650 49.475870 0.000000 6.543473 47.088087 0.000000 6.546759 47.096390 0.000000 4.631288 49.821229 0.000000 4.586912 47.244548 0.000000 1.641487 49.936126 0.000000 2.566938 47.070590 0.000000 4.615730 49.792469 0.000000 4.582459 47.217838 0.000000 4.617385 49.794649 0.000000 2.568569 47.072765 0.000000 2.523612 47.057945 0.000000 1.641251 49.937226 0.000000 -0.331336 47.663506 0.000000 -1.644057 49.934990 0.000000 -0.333329 47.661208 0.000000 1.639261 49.934932 0.000000 -0.338794 47.664132 0.000000 -1.646652 49.939546 0.000000 -2.912283 47.857281 0.000000 -4.626022 49.854853 0.000000 -2.987169 47.898248 0.000000 -1.649392 49.934966 0.000000 -2.981785 47.892011 0.000000 -4.641863 49.830639 0.000000 -4.580917 47.860801 0.000000 -7.698663 49.558761 0.000000 -6.101060 47.836336 0.000000 -4.640932 49.924322 0.000000 -4.581546 47.861506 0.000000 -4.651348 49.831050 0.000000 -6.146270 47.767833 0.000000 -6.116296 47.726784 0.000000 -7.691395 49.469812 0.000000 -8.475032 47.233237 0.000000 -10.726961 49.039283 0.000000 -8.438797 47.363786 0.000000 -7.701982 49.616219 0.000000 19.763358 46.461253 0.000000 16.831168 47.402328 0.000000 16.548583 45.728817 0.000000 16.746401 47.386565 0.000000 13.838533 48.400303 0.000000 16.320323 45.743716 0.000000 16.278610 45.583022 0.000000 13.764122 48.208681 0.000000 13.941095 45.139928 0.000000 8.870854 47.425704 0.000000 10.978130 45.615463 0.000000 10.742493 48.936733 0.000000 10.737734 48.998600 0.000000 11.011125 45.680224 0.000000 13.724071 48.246839 0.000000 13.910792 45.107898 0.000000 13.686806 48.173578 0.000000 10.975075 45.605681 0.000000 11.008448 45.576559 0.000000 8.879696 47.361495 0.000000 8.412809 45.782982 0.000000 6.531089 47.086385 0.000000 8.411691 45.782433 0.000000 8.874898 47.362030 0.000000 8.412184 45.781195 0.000000 6.531784 47.085438 0.000000 6.957949 44.960624 0.000000 2.557502 47.072324 0.000000 4.566465 44.904852 0.000000 4.572593 47.197761 0.000000 6.963168 44.933709 0.000000 6.529142 47.056890 0.000000 4.566510 44.921931 0.000000 4.572560 47.217479 0.000000 4.568971 44.924608 0.000000 6.531605 47.059568 0.000000 4.529496 44.927368 0.000000 2.529407 47.103091 0.000000 2.379483 44.970989 0.000000 2.374477 44.932966 0.000000 2.526783 47.064998 0.000000 0.308191 45.080105 0.000000 -0.336510 47.664536 0.000000 0.298320 45.073434 0.000000 2.518057 47.057161 0.000000 0.296439 45.075022 0.000000 -0.336965 47.666528 0.000000 -1.921411 46.124426 0.000000 -2.912851 47.857323 0.000000 -1.923834 46.122069 0.000000 -0.339375 47.664178 0.000000 -6.089667 47.735465 0.000000 -4.470333 45.931491 0.000000 -4.526105 47.846867 0.000000 -1.938569 46.147867 0.000000 -2.927604 47.883144 0.000000 -4.453732 45.898424 0.000000 -4.517822 47.844133 0.000000 -4.469984 45.928547 0.000000 -2.919166 47.894018 0.000000 -8.444694 47.222093 0.000000 -6.803666 46.122989 0.000000 -6.089564 47.732575 0.000000 -4.469589 45.929113 0.000000 -6.089492 47.732573 0.000000 -6.802483 46.122494 0.000000 -6.787714 46.112371 0.000000 -8.434445 47.202917 0.000000 -8.342534 45.364181 0.000000 -13.761700 48.267941 0.000000 -11.051536 45.795990 0.000000 -10.778173 49.030776 0.000000 -8.342576 45.364712 0.000000 -8.435070 47.203423 0.000000 -11.010046 45.665123 0.000000 -10.683278 48.945738 0.000000 -11.058248 45.721150 0.000000 -8.448492 47.199680 0.000000 -11.098335 45.779110 0.000000 -13.795442 48.265302 0.000000 -13.556925 45.848769 0.000000 -19.648392 46.429053 0.000000 -15.951111 45.393760 0.000000 -16.720250 47.382649 0.000000 -16.707185 47.395077 0.000000 -15.833754 45.449731 0.000000 -13.770956 48.323472 0.000000 -13.562874 45.846989 0.000000 -13.798225 48.263833 0.000000 -15.863601 45.391944 0.000000 22.334735 44.920787 0.000000 19.564710 46.266268 0.000000 20.367722 43.713835 0.000000 20.389958 43.588843 0.000000 19.568088 46.135265 0.000000 18.159520 43.671693 0.000000 16.268713 45.629386 0.000000 18.109701 43.653854 0.000000 19.530603 46.110333 0.000000 18.131648 43.630473 0.000000 16.256406 45.573520 0.000000 15.624290 43.208127 0.000000 13.925119 45.101155 0.000000 15.622254 43.209792 0.000000 16.256682 45.574565 0.000000 10.993670 45.600853 0.000000 13.047666 42.940889 0.000000 13.928381 45.097167 0.000000 15.627542 43.203781 0.000000 13.929340 45.094187 0.000000 13.049136 42.937702 0.000000 13.065698 42.917353 0.000000 11.005825 45.572766 0.000000 10.620191 42.502105 0.000000 6.957666 44.959253 0.000000 8.679178 43.907144 0.000000 8.415581 45.773266 0.000000 10.619907 42.499828 0.000000 11.005526 45.570490 0.000000 8.678010 43.911156 0.000000 8.414446 45.781077 0.000000 8.682686 43.915613 0.000000 11.010116 45.575067 0.000000 4.564660 44.921718 0.000000 6.605879 43.029861 0.000000 6.961303 44.933707 0.000000 8.692585 43.899167 0.000000 6.961590 44.935421 0.000000 6.607692 43.031296 0.000000 6.565294 43.039060 0.000000 4.530555 44.937944 0.000000 4.647436 42.391395 0.000000 0.310176 45.079572 0.000000 2.137658 42.696370 0.000000 2.376459 44.932849 0.000000 4.642438 42.380871 0.000000 4.531023 44.927608 0.000000 2.143786 42.735008 0.000000 2.380466 44.971002 0.000000 2.143228 42.734492 0.000000 4.530454 44.927085 0.000000 2.133180 42.700184 0.000000 0.306817 45.083996 0.000000 -0.439219 42.920393 0.000000 -4.452685 45.897611 0.000000 -2.237488 44.166568 0.000000 -1.937609 46.147902 0.000000 -0.448442 42.912918 0.000000 0.299496 45.075855 0.000000 -2.218918 44.144053 0.000000 -1.921054 46.124258 0.000000 -2.221618 44.143054 0.000000 0.296795 45.074854 0.000000 -2.237887 44.166881 0.000000 -4.453083 45.897921 0.000000 -4.504500 43.109986 0.000000 -8.338276 45.366127 0.000000 -6.624711 44.336887 0.000000 -6.782593 46.112531 0.000000 -4.504018 43.135657 0.000000 -4.453090 45.923599 0.000000 -6.620445 44.322188 0.000000 -6.781835 46.107131 0.000000 -6.619508 44.331887 0.000000 -4.447850 45.927434 0.000000 -11.003703 45.654366 0.000000 -8.841168 43.496667 0.000000 -8.335140 45.363767 0.000000 -6.617778 44.331771 0.000000 -8.335857 45.353454 0.000000 -8.843270 43.486729 0.000000 -8.840353 43.495839 0.000000 -11.003198 45.653228 0.000000 -11.159807 42.584043 0.000000 -15.797311 45.337162 0.000000 -13.433466 43.879670 0.000000 -13.492526 45.771187 0.000000 -11.161079 42.591750 0.000000 -11.002800 45.660849 0.000000 -13.382326 43.839385 0.000000 -13.484210 45.755920 0.000000 -13.395374 43.865568 0.000000 -11.025285 45.699314 0.000000 -13.378567 43.845797 0.000000 -15.759040 45.275972 0.000000 -15.583847 42.483184 0.000000 -19.505217 46.123274 0.000000 -18.042082 43.399750 0.000000 -15.755054 45.299871 0.000000 -15.588808 42.486323 0.000000 -15.760862 45.279305 0.000000 -18.054553 43.387233 0.000000 -18.066711 43.399978 0.000000 -19.514208 46.131846 0.000000 -20.321426 43.593125 0.000000 -22.365680 44.929521 0.000000 -20.323490 43.745645 0.000000 -19.614736 46.313597 0.000000 27.809642 41.889363 0.000000 25.189743 43.507844 0.000000 25.600875 40.909658 0.000000 25.559885 40.911515 0.000000 25.178992 43.514307 0.000000 22.448363 41.570402 0.000000 20.387817 43.604711 0.000000 22.326595 41.417888 0.000000 22.332359 44.847542 0.000000 25.077031 43.462245 0.000000 22.380980 44.950420 0.000000 22.344542 41.520955 0.000000 18.126894 43.641387 0.000000 19.557453 41.932879 0.000000 20.358263 43.589283 0.000000 22.323608 41.413326 0.000000 20.368016 43.585127 0.000000 19.575300 41.924834 0.000000 15.627671 43.206429 0.000000 17.477510 41.390785 0.000000 18.134688 43.630794 0.000000 19.564631 41.922411 0.000000 18.134931 43.631627 0.000000 17.477760 41.391615 0.000000 17.481181 41.387130 0.000000 15.631360 43.202791 0.000000 14.917353 40.604824 0.000000 13.053293 42.933821 0.000000 14.917368 40.605048 0.000000 15.631381 43.203013 0.000000 14.930452 40.588686 0.000000 13.063895 42.915465 0.000000 12.243734 40.567858 0.000000 10.618295 42.499917 0.000000 12.244054 40.568748 0.000000 13.063567 42.916578 0.000000 12.251822 40.558887 0.000000 10.625389 42.489415 0.000000 10.237162 40.416561 0.000000 6.587841 43.023151 0.000000 8.492461 41.572012 0.000000 8.675743 43.883763 0.000000 10.236814 40.414770 0.000000 10.625056 42.487625 0.000000 8.493177 41.585842 0.000000 8.684765 43.898324 0.000000 8.496009 41.587040 0.000000 10.627899 42.488827 0.000000 8.468979 41.586640 0.000000 6.565949 43.039883 0.000000 6.156643 40.473852 0.000000 4.647230 42.391321 0.000000 6.156460 40.472779 0.000000 6.565111 43.038916 0.000000 6.156571 40.472384 0.000000 4.645841 42.389689 0.000000 3.828993 40.757972 0.000000 2.142088 42.735252 0.000000 3.819078 40.751853 0.000000 4.640727 42.381114 0.000000 3.818685 40.752319 0.000000 2.141622 42.735804 0.000000 1.975682 39.865233 0.000000 1.966961 39.832357 0.000000 2.135753 42.702819 0.000000 -0.108154 40.875669 0.000000 -0.439753 42.920439 0.000000 -0.111436 40.873405 0.000000 2.132607 42.700234 0.000000 -4.496070 43.110191 0.000000 -2.338350 41.808322 0.000000 -2.230887 44.170187 0.000000 -0.115203 40.872003 0.000000 -0.440413 42.919495 0.000000 -2.323028 41.790063 0.000000 -2.229389 44.149633 0.000000 -2.339286 41.787902 0.000000 -0.458087 42.919650 0.000000 -2.341741 41.810367 0.000000 -4.499548 43.112086 0.000000 -4.568245 40.556600 0.000000 -8.844013 43.482633 0.000000 -6.794047 41.963821 0.000000 -6.619781 44.331011 0.000000 -6.620490 44.320420 0.000000 -6.794831 41.953238 0.000000 -4.503291 43.135274 0.000000 -4.571786 40.579261 0.000000 -4.504171 43.134777 0.000000 -6.794533 41.950385 0.000000 -11.160968 42.578555 0.000000 -9.141886 41.046221 0.000000 -8.842452 43.492718 0.000000 -6.793281 41.963273 0.000000 -
[...]
<PointData Vectors='Velocity Force Displacement'>
<DataArray type='Float32' Name='Velocity' NumberOfComponents='3' format='ascii'>
1.031708 5.026304 0.000000 1.312475 6.409208 0.000000 0.342680 5.886652 0.000000 -0.689587 -8.193326 0.000000 8.380633 -1.660906 0.000000 0.347302 2.089153 0.000000 1.269649 2.984334 0.000000 0.328672 2.436659 0.000000 1.410041 1.924822 0.000000 1.167161 2.039651 0.000000 -0.177382 1.094497 0.000000 1.094049 1.072592 0.000000 -0.096856 -1.145771 0.000000 0.970910 -0.838520 0.000000 -0.043143 -0.085383 0.000000 0.922859 -0.096873 0.000000 -0.035363 -0.085655 0.000000 0.970178 -0.836429 0.000000 -0.107930 -0.946520 0.000000 -0.219231 -0.952976 0.000000 -0.097287 -1.058434 0.000000 -0.150802 -1.021978 0.000000 -0.006018 -0.956368 0.000000 -0.119739 -0.835959 0.000000 -0.215006 -1.215917 0.000000 -0.097659 -1.138956 0.000000 -0.199227 -1.092314 0.000000 -0.289387 2.096317 0.000000 -2.388314 0.337330 0.000000 -0.200636 -1.100114 0.000000 -2.411871 0.350792 0.000000 -0.879358 1.661167 0.000000 -2.436628 1.613588 0.000000 -1.018465 4.667809 0.000000 -1.231146 4.470540 0.000000 -0.973326 4.290247 0.000000 -2.461209 1.527942 0.000000 -0.921142 1.582538 0.000000 -2.534467 2.751463 0.000000 -1.493498 1.594558 0.000000 -0.687444 2.327575 0.000000 -1.719164 2.689397 0.000000 -1.019347 6.100611 0.000000 -0.888088 6.279866 0.000000 -1.064544 6.337588 0.000000 8.320592 12.675983 0.000000 6.643438 7.450728 0.000000 9.625698 6.947083 0.000000 3.898984 7.008794 0.000000 4.755207 9.464919 0.000000 2.511356 7.368665 0.000000 1.297108 2.438165 0.000000 2.581390 3.668085 0.000000 1.080370 3.581513 0.000000 1.221683 3.826481 0.000000 0.586641 3.087231 0.000000 1.751766 3.169899 0.000000 1.594465 4.800558 0.000000 1.290712 4.775532 0.000000 1.525652 4.527198 0.000000 0.505166 2.708431 0.000000 0.343439 2.696615 0.000000 0.478906 2.553560 0.000000 1.097184 1.933322 0.000000 1.146059 1.991611 0.000000 1.102836 2.004395 0.000000 0.952017 1.896137 0.000000 1.001057 1.966863 0.000000 0.941651 1.984284 0.000000 1.236731 2.053828 0.000000 1.057535 1.795472 0.000000 1.349472 1.854024 0.000000 0.970431 -0.841541 0.000000 1.653294 -0.223282 0.000000 0.936074 -0.215367 0.000000 1.633393 0.566944 0.000000 0.989801 0.437527 0.000000 1.633134 -0.151349 0.000000 0.934412 -0.150432 0.000000 1.632522 -0.150333 0.000000 0.988536 0.437834 0.000000 0.011869 0.227463 0.000000 0.006838 0.210948 0.000000 0.013950 0.206480 0.000000 -0.118596 -1.020886 0.000000 -0.072696 -0.988766 0.000000 -0.108132 -0.995193 0.000000 -0.246878 -1.098119 0.000000 -0.245171 -1.132984 0.000000 -0.247700 -1.141585 0.000000 -0.328621 -1.238822 0.000000 -0.215813 -1.215171 0.000000 -0.284413 -1.152586 0.000000 -0.199051 -1.093543 0.000000 -0.282890 -1.149797 0.000000 -0.216256 -1.215530 0.000000 -1.009562 1.726417 0.000000 -1.617003 1.181144 0.000000 -0.972048 1.199927 0.000000 -0.838620 -0.202214 0.000000 -0.764915 -0.160482 0.000000 -0.850086 -0.095916 0.000000 -0.388178 1.279354 0.000000 -1.480110 1.250326 0.000000 -0.359431 0.371173 0.000000 -1.193545 2.549663 0.000000 -1.623312 1.910276 0.000000 -0.993132 1.633067 0.000000 -1.501960 1.211267 0.000000 -0.985771 1.680938 0.000000 -1.447264 1.885572 0.000000 -0.731219 1.465526 0.000000 -0.400048 1.946177 0.000000 -0.985466 1.933997 0.000000 -2.525675 5.485937 0.000000 -2.287165 5.747432 0.000000 -2.599279 5.773808 0.000000 -1.040248 1.927240 0.000000 -0.716202 1.929789 0.000000 -1.043930 2.447399 0.000000 0.074693 3.302537 0.000000 -2.497911 3.601665 0.000000 -1.318307 1.519593 0.000000 -3.547769 5.301186 0.000000 -3.317401 5.551098 0.000000 -3.541315 5.528997 0.000000 -4.902356 11.620613 0.000000 -6.596407 5.570273 0.000000 -3.341775 6.828974 0.000000 -2.912784 7.425666 0.000000 -3.123641 7.330995 0.000000 -2.812154 7.107407 0.000000 -3.623253 5.558304 0.000000 -3.499313 5.570373 0.000000 -3.646588 5.676289 0.000000 1.453686 4.958074 0.000000 2.317514 6.736527 0.000000 0.678773 6.220954 0.000000 1.283762 2.693852 0.000000 2.217774 2.995314 0.000000 1.314148 3.511965 0.000000 1.267069 3.724167 0.000000 0.424982 2.939423 0.000000 1.472084 2.333755 0.000000 0.718436 2.559137 0.000000 0.786463 2.624794 0.000000 0.703647 2.646925 0.000000 0.737429 2.854257 0.000000 0.551836 2.687725 0.000000 0.783884 2.625469 0.000000 0.645610 2.607278 0.000000 0.765042 2.699508 0.000000 0.668224 2.739051 0.000000 1.016590 2.668817 0.000000 0.931868 2.592022 0.000000 1.025993 2.552589 0.000000 1.585435 1.567859 0.000000 1.769690 1.712543 0.000000 1.553495 1.739789 0.000000 1.604888 1.830813 0.000000 1.581121 1.784644 0.000000 1.625531 1.794194 0.000000 1.552932 1.739865 0.000000 1.770062 1.712603 0.000000 1.650274 1.878660 0.000000 1.628873 1.757632 0.000000 1.622308 1.756500 0.000000 1.627977 1.748919 0.000000 1.645565 -0.227037 0.000000 2.271412 0.444070 0.000000 1.634227 0.566354 0.000000 2.146429 1.420113 0.000000 1.631888 0.566471 0.000000 2.561986 0.398018 0.000000 0.413036 0.893303 0.000000 0.198729 0.662815 0.000000 0.485768 0.676873 0.000000 -0.141284 -1.169533 0.000000 0.026869 -1.042124 0.000000 -0.118814 -1.020399 0.000000 0.325221 0.459303 0.000000 0.190846 0.465350 0.000000 0.305640 0.330649 0.000000 0.013526 0.201499 0.000000 0.138786 0.177768 0.000000 0.013795 0.302461 0.000000 -0.140599 -1.170161 0.000000 -0.144017 -1.168807 0.000000 -0.132572 -1.195058 0.000000 -0.906064 -0.121790 0.000000 -0.970875 -0.209209 0.000000 -0.891882 -0.222217 0.000000 -0.552910 -1.147757 0.000000 -0.486942 -1.164635 0.000000 -0.511210 -1.080801 0.000000 -0.441150 -1.078979 0.000000 -0.513649 -1.081453 0.000000 -0.485601 -1.164359 0.000000 -0.971009 -0.209271 0.000000 -0.905015 -0.122665 0.000000 -1.011641 -0.121623 0.000000 -0.971698 1.983904 0.000000 -1.295181 1.445289 0.000000 -0.737063 1.494938 0.000000 -0.992793 0.873747 0.000000 -0.911383 0.877424 0.000000 -0.956612 0.943678 0.000000 -0.658211 1.397943 0.000000 -0.908327 1.378090 0.000000 -0.667359 1.086743 0.000000 -0.930112 1.839252 0.000000 -0.968978 1.796610 0.000000 -0.932528 1.788753 0.000000 -1.034171 1.133094 0.000000 -1.087791 1.046435 0.000000 -0.997234 1.022161 0.000000 -0.945540 1.825576 0.000000 -0.920657 1.860035 0.000000 -0.961759 1.851722 0.000000 -1.624058 3.820186 0.000000 -1.914581 3.348995 0.000000 -1.537542 3.360769 0.000000 -0.852981 2.108032 0.000000 -0.896202 2.105565 0.000000 -0.863672 2.108441 0.000000 -1.237638 2.524646 0.000000 -0.965283 2.537445 0.000000 -1.229481 2.878918 0.000000 -0.768642 2.647542 0.000000 -0.763533 2.656907 0.000000 -0.771246 2.655780 0.000000 -0.383599 2.776390 0.000000 -0.297214 2.822798 0.000000 -0.357482 2.895339 0.000000 -0.565105 2.440870 0.000000 -0.558478 2.441278 0.000000 -0.562967 2.446721 0.000000 -0.964341 2.640016 0.000000 -0.511223 2.880104 0.000000 -0.932306 3.013992 0.000000 -2.379261 5.223931 0.000000 -1.113030 7.408118 0.000000 -3.859547 8.166196 0.000000 6.184671 6.694681 0.000000 6.101527 6.560091 0.000000 6.235001 6.581212 0.000000 4.766792 6.560102 0.000000 5.722030 6.699896 0.000000 5.008602 7.702049 0.000000 1.237040 2.995764 0.000000 1.083696 2.859813 0.000000 1.324190 2.859410 0.000000 2.336639 4.989353 0.000000 2.888289 5.988760 0.000000 1.617013 6.002261 0.000000 0.898742 2.545602 0.000000 0.929689 2.571514 0.000000 0.899686 2.586019 0.000000 1.047218 2.948976 0.000000 0.777338 2.705921 0.000000 0.983665 2.607368 0.000000 0.923692 2.582555 0.000000 0.913928 2.572682 0.000000 0.924475 2.568967 0.000000 0.920767 2.586379 0.000000 0.878643 2.531606 0.000000 0.927820 2.516640 0.000000 1.054332 2.495702 0.000000 1.026489 2.467973 0.000000 1.065844 2.457424 0.000000 1.021047 2.439988 0.000000 1.068042 2.477322 0.000000 1.015757 2.491541 0.000000 1.720827 1.580017 0.000000 1.792980 1.636448 0.000000 1.720807 1.658898 0.000000 1.718995 1.645142 0.000000 1.721553 1.649701 0.000000 1.720561 1.648392 0.000000 1.937059 1.156515 0.000000 1.982071 1.189415 0.000000 1.931327 1.201411 0.000000 1.583435 -0.008818 0.000000 1.750500 0.209797 0.000000 1.484460 0.232105 0.000000 1.915740 1.198202 0.000000 1.982963 1.189314 0.000000 1.951221 1.260990 0.000000 2.030629 1.257144 0.000000 1.952970 1.261606 0.000000 1.982700 1.189233 0.000000 0.569084 1.048731 0.000000 0.428813 0.865570 0.000000 0.676937 0.825081 0.000000 0.485102 0.673565 0.000000 0.669016 0.819153 0.000000 0.423203 0.857598 0.000000 0.675484 0.634951 0.000000 0.461206 0.466424 0.000000 0.648083 0.371964 0.000000 0.303769 0.330475 0.000000 0.413896 0.412310 0.000000 0.326752 0.458958 0.000000 0.309286 0.535734 0.000000 0.195576 0.458336 0.000000 0.366930 0.422825 0.000000 -0.084416 -1.187738 0.000000 -0.147125 -1.176606 0.000000 -0.107969 -1.236771 0.000000 -0.136784 -1.195497 0.000000 -0.093006 -1.207679 0.000000 -0.137210 -1.170069 0.000000 -0.941758 -0.222800 0.000000 -0.931465 -0.202100 0.000000 -0.957524 -0.199544 0.000000 -0.734105 -1.313784 0.000000 -0.319154 -1.221790 0.000000 -0.542694 -0.835539 0.000000 -1.138868 -0.898412 0.000000 -0.978480 -0.917447 0.000000 -1.058502 -0.789817 0.000000 -0.936168 -0.199460 0.000000 -0.969924 -0.250572 0.000000 -0.913397 -0.252123 0.000000 -0.976299 1.127596 0.000000 -0.971378 1.139608 0.000000 -0.982736 1.142491 0.000000 -0.984276 0.883204 0.000000 -0.992385 0.883769 0.000000 -0.995716 0.867550 0.000000 -0.937940 0.846542 0.000000 -1.031074 0.849031 0.000000 -0.987891 0.765567 0.000000 -0.879771 1.830174 0.000000 -0.941091 1.739945 0.000000 -0.823522 1.724803 0.000000 -0.949895 1.131734 0.000000 -0.887554 1.211256 0.000000 -0.981295 1.224250 0.000000 -0.856616 1.656963 0.000000 -0.861939 1.647066 0.000000 -0.849816 1.647579 0.000000 -1.031012 2.223484 0.000000 -1.146245 2.003049 0.000000 -0.898541 2.006427 0.000000 -0.906811 2.095528 0.000000 -1.152829 2.116324 0.000000 -1.014219 1.907194 0.000000 -0.818243 1.949236 0.000000 -0.934263 1.958070 0.000000 -0.876629 1.841923 0.000000 -0.936267 1.973998 0.000000 -0.886244 2.069860 0.000000 -0.986574 2.062292 0.000000 -1.017475 2.210766 0.000000 -0.961455 2.215810 0.000000 -0.991407 2.263267 0.000000 -0.615464 2.337563 0.000000 -0.537561 2.352054 0.000000 -0.588469 2.419252 0.000000 -0.638571 2.364867 0.000000 -0.619351 2.368605 0.000000 -0.632162 2.380913 0.000000 -0.615865 2.413449 0.000000 -0.610445 2.418047 0.000000 -0.614161 2.422541 0.000000 -2.659171 4.652832 0.000000 -2.701051 4.579558 0.000000 -2.622438 4.584423 0.000000 -1.152873 3.287465 0.000000 -1.334210 3.208502 0.000000 -1.139534 3.022045 0.000000 -1.948796 3.744004 0.000000 -1.215838 3.792832 0.000000 -1.655998 4.215603 0.000000 -0.877424 3.008986 0.000000 -0.810470 3.125195 0.000000 -0.930513 3.128937 0.000000 -2.917471 4.910058 0.000000 -2.957785 4.835463 0.000000 -2.869779 4.832816 0.000000 8.238497 7.058487 0.000000 6.767826 5.131708 0.000000 7.998849 5.075817 0.000000 2.319075 4.340627 0.000000 2.627809 4.731480 0.000000 2.152332 4.711912 0.000000 3.818972 5.075532 0.000000 3.413658 5.062301 0.000000 3.562544 4.715473 0.000000 2.383517 4.389738 0.000000 2.426037 4.386517 0.000000 2.397901 4.452375 0.000000 2.139305 4.356865 0.000000 2.070083 4.269670 0.000000 2.159001 4.232461 0.000000 1.968267 4.469761 0.000000 1.836241 4.376098 0.000000 1.940441 4.331956 0.000000 1.129773 3.030268 0.000000 0.885051 2.858503 0.000000 1.108645 2.820653 0.000000 0.944892 2.671816 0.000000 0.866768 2.575634 0.000000 0.970312 2.561722 0.000000 1.128489 2.608628 0.000000 0.622111 2.695761 0.000000 0.956992 2.181985 0.000000 0.956412 2.599090 0.000000 1.288271 2.597191 0.000000 1.028697 2.998713 0.000000 1.096152 2.405053 0.000000 1.139119 2.452744 0.000000 1.074851 2.458662 0.000000 1.188671 2.405436 0.000000 1.220460 2.425770 0.000000 1.175706 2.439562 0.000000 0.743988 1.582841 0.000000 0.614799 1.360692 0.000000 0.880180 1.419310 0.000000 0.880318 1.419922 0.000000 0.614970 1.360428 0.000000 0.808097 1.205351 0.000000 0.616853 1.078630 0.000000 0.808566 1.205515 0.000000 0.612582 1.360157 0.000000 0.731247 1.151709 0.000000 0.623380 1.080155 0.000000 0.755116 1.017598 0.000000 0.635558 0.976211 0.000000 0.754780 1.017489 0.000000 0.623736 1.080700 0.000000 0.515148 0.637071 0.000000 0.669371 0.942462 0.000000 0.375790 0.925783 0.000000 0.754209 1.018083 0.000000 0.636561 0.975125 0.000000 0.701515 0.898530 0.000000 0.576844 0.978625 0.000000 0.672957 0.984212 0.000000 0.623763 1.048677 0.000000 0.649589 0.763079 0.000000 0.560792 0.611784 0.000000 0.724053 0.645310 0.000000 0.404849 0.399843 0.000000 0.524820 0.579368 0.000000 0.334591 0.552981 0.000000 0.660532 0.576874 0.000000 0.550405 0.554170 0.000000 0.641442 0.471272 0.000000 0.535736 0.463770 0.000000 0.639485 0.469906 0.000000 0.551478 0.555787 0.000000 0.303206 0.658930 0.000000 0.208048 0.534010 0.000000 0.360682 0.489857 0.000000 -0.179839 -1.551583 0.000000 0.028100 -1.588234 0.000000 -0.072425 -1.412623 0.000000 0.051250 -1.383749 0.000000 -0.084184 -1.414068 0.000000 -0.022566 -1.526812 0.000000 -0.961641 -0.374111 0.000000 -0.883147 -0.241578 0.000000 -1.031051 -0.246873 0.000000 -0.109486 -1.252526 0.000000 -0.014900 -1.199490 0.000000 -0.074029 -1.104123 0.000000 -0.404460 -0.878753 0.000000 -0.792711 -0.913414 0.000000 -0.540437 -1.207637 0.000000 -0.882168 -0.241954 0.000000 -0.961061 -0.374623 0.000000 -0.822331 -0.380844 0.000000 -0.975284 1.126584 0.000000 -0.975296 1.128037 0.000000 -0.971297 1.123190 0.000000 -0.802276 0.899198 0.000000 -0.883603 0.894474 0.000000 -0.837649 0.812013 0.000000 -0.997415 0.770510 0.000000 -0.886625 0.758376 0.000000 -0.942048 0.862288 0.000000 -0.980258 1.392798 0.000000 -0.888862 1.503513 0.000000 -1.034397 1.541829 0.000000 -0.975021 1.128068 0.000000 -0.976499 1.126890 0.000000 -0.973892 1.125778 0.000000 -0.892594 1.486525 0.000000 -0.978117 1.381616 0.000000 -0.876103 1.382781 0.000000 -0.898944 1.833924 0.000000 -0.828372 1.952623 0.000000 -0.962368 1.942589 0.000000 -0.941488 1.697067 0.000000 -0.891419 1.703356 0.000000 -0.920279 1.733883 0.000000 -0.879568 1.442761 0.000000 -0.985417 1.441729 0.000000 -0.879414 1.317094 0.000000 -0.846210 1.923957 0.000000 -0.901477 1.832967 0.000000 -0.812175 1.826135 0.000000 -0.714541 2.143633 0.000000 -0.782206 2.132604 0.000000 -0.755901 2.077616 0.000000 -0.819794 1.956501 0.000000 -0.883081 1.962598 0.000000 -0.858823 1.917055 0.000000 -0.649195 2.717802 0.000000 -0.719047 2.621212 0.000000 -0.638748 2.615934 0.000000 -0.793081 2.131924 0.000000 -0.720292 2.145068 0.000000 -0.777179 2.236412 0.000000 -0.661290 2.361611 0.000000 -0.674936 2.362481 0.000000 -0.665699 2.350563 0.000000 -0.995951 2.878368 0.000000 -1.078211 2.773142 0.000000 -0.935856 2.741989 0.000000 -0.736537 2.465727 0.000000 -0.613114 2.597566 0.000000 -0.769616 2.616044 0.000000 -1.306125 2.611950 0.000000 -1.037407 2.953302 0.000000 -1.424178 3.009038 0.000000 -3.099426 5.848430 0.000000 -3.154631 5.680477 0.000000 -2.981763 5.682919 0.000000 -1.870939 3.924321 0.000000 -1.236967 3.830572 0.000000 -1.535531 4.439603 0.000000 -2.547026 4.820374 0.000000 -2.687006 4.819299 0.000000 -2.620473 4.685493 0.000000 -3.864464 4.905723 0.000000 -4.236522 5.373865 0.000000 -4.243981 4.799222 0.000000 -3.685864 4.482856 0.000000 -3.358031 5.438192 0.000000 -4.095349 5.235195 0.000000 4.172056 6.387565 0.000000 2.859548 4.892027 0.000000 4.289419 4.589962 0.000000 0.956530 4.057251 0.000000 1.281000 4.348292 0.000000 1.030658 4.394032 0.000000 2.538820 4.632700 0.000000 2.676312 4.607339 0.000000 2.567744 4.834186 0.000000 2.712983 4.448128 0.000000 2.623617 4.468326 0.000000 2.678445 4.353276 0.000000 0.929518 3.968607 0.000000 0.982701 4.033797 0.000000 0.912986 4.061574 0.000000 1.206881 4.313777 0.000000 0.904208 4.041743 0.000000 1.240307 3.909347 0.000000 0.894793 3.299660 0.000000 1.280858 3.777824 0.000000 0.803540 3.759711 0.000000 0.661249 2.506806 0.000000 0.689071 2.509105 0.000000 0.668700 2.535911 0.000000 0.794641 2.633895 0.000000 0.773859 2.628009 0.000000 0.797637 2.605904 0.000000 0.990295 1.905167 0.000000 1.008804 1.910465 0.000000 0.993674 1.924561 0.000000 0.822801 1.893366 0.000000 0.921703 1.931879 0.000000 0.863752 1.993863 0.000000 0.938788 1.413859 0.000000 0.966857 1.492419 0.000000 0.898831 1.463880 0.000000 0.948805 1.802177 0.000000 0.652841 1.686579 0.000000 0.972658 1.492320 0.000000 0.802948 1.730763 0.000000 0.963515 1.799978 0.000000 0.786403 1.907959 0.000000 0.883991 1.663493 0.000000 0.804983 1.446873 0.000000 0.971988 1.489839 0.000000 0.697599 1.002703 0.000000 0.825258 1.115028 0.000000 0.677611 1.119588 0.000000 0.938077 1.322334 0.000000 0.845011 1.299134 0.000000 0.934521 1.198012 0.000000 0.806928 1.201657 0.000000 0.935086 1.198575 0.000000 0.843920 1.298253 0.000000 0.841837 1.098663 0.000000 0.724992 0.977164 0.000000 0.825434 0.979195 0.000000 0.763071 0.670466 0.000000 0.827943 0.748761 0.000000 0.717011 0.738273 0.000000 0.822771 0.978994 0.000000 0.742547 0.976544 0.000000 0.806243 0.896097 0.000000 0.717960 0.893061 0.000000 0.809654 0.903509 0.000000 0.750885 0.973387 0.000000 0.818407 0.574075 0.000000 0.835816 0.619401 0.000000 0.797158 0.638115 0.000000 0.456300 0.484241 0.000000 0.623561 0.570962 0.000000 0.478092 0.627718 0.000000 0.501046 0.703955 0.000000 0.368971 0.629424 0.000000 0.482696 0.565799 0.000000 0.360571 0.488576 0.000000 0.485189 0.576518 0.000000 0.310196 0.653713 0.000000 0.469984 0.593432 0.000000 0.354647 0.495231 0.000000 0.481103 0.457065 0.000000 -0.073202 -1.105456 0.000000 -0.280658 -1.225121 0.000000 -0.104925 -1.252659 0.000000 -0.322104 -1.512133 0.000000 -0.174116 -1.550049 0.000000 -0.240657 -1.354032 0.000000 -0.072729 -1.418175 0.000000 -0.236992 -1.351566 0.000000 -0.186127 -1.552727 0.000000 -0.632764 -0.978628 0.000000 -0.395289 -0.817069 0.000000 -0.600628 -0.746892 0.000000 -0.786358 -0.362547 0.000000 -0.734620 -0.283186 0.000000 -0.845559 -0.240819 0.000000 -0.752463 -0.274311 0.000000 -0.809493 -0.373222 0.000000 -0.710929 -0.351016 0.000000 -0.866975 0.707542 0.000000 -0.856275 0.708670 0.000000 -0.862548 0.727127 0.000000 -0.838263 0.809167 0.000000 -0.743358 0.838213 0.000000 -0.803091 0.895819 0.000000 -0.860253 1.119230 0.000000 -0.997830 1.079184 0.000000 -0.897051 1.006431 0.000000 -0.966948 1.096930 0.000000 -0.911096 1.137620 0.000000 -0.979066 1.187323 0.000000 -0.975263 1.362186 0.000000 -0.932784 1.411958 0.000000 -0.974838 1.404927 0.000000 -0.932882 1.326961 0.000000 -0.842156 1.342279 0.000000 -0.944420 1.405178 0.000000 -0.949236 1.152901 0.000000 -1.004519 1.112747 0.000000 -0.935414 1.069930 0.000000 -0.857154 1.778162 0.000000 -0.836192 1.788458 0.000000 -0.877888 1.801894 0.000000 -0.874067 1.336228 0.000000 -0.911093 1.292554 0.000000 -0.853068 1.278040 0.000000 -0.850087 1.781138 0.000000 -0.863555 1.768511 0.000000 -0.855896 1.777956 0.000000 -0.991922 2.158428 0.000000 -1.021977 2.135185 0.000000 -0.993471 2.124206 0.000000 -0.865394 1.924566 0.000000 -0.871638 1.931026 0.000000 -0.867559 1.921606 0.000000 -0.993564 1.856389 0.000000 -0.894148 1.826558 0.000000 -0.923722 1.943732 0.000000 -0.768567 2.576913 0.000000 -0.906368 2.440731 0.000000 -0.715784 2.377187 0.000000 -1.017923 2.123055 0.000000 -0.984193 2.148019 0.000000 -1.027327 2.161742 0.000000 -0.796480 2.449613 0.000000 -0.702533 2.541801 0.000000 -0.826127 2.581105 0.000000 -1.010632 2.968495 0.000000 -1.243725 2.762069 0.000000 -0.918325 2.659376 0.000000 -1.118243 2.798984 0.000000 -1.043028 2.862345 0.000000 -1.114340 2.881169 0.000000 -2.204715 4.531671 0.000000 -1.872894 5.093352 0.000000 -2.534188 5.112137 0.000000 -1.117764 3.324312 0.000000 -1.294715 3.331060 0.000000 -1.225266 3.156432 0.000000 -1.115929 3.223897 0.000000 -0.777407 3.138983 0.000000 -0.933366 3.533292 0.000000 -1.937059 4.972311 0.000000 -2.222093 4.490194 0.000000 -1.732736 4.399859 0.000000 -2.465348 4.310098 0.000000 -2.078929 4.823065 0.000000 -2.462723 4.895526 0.000000 -5.806775 4.646316 0.000000 -5.566194 4.382574 0.000000 -5.505864 4.700053 0.000000 -4.247026 4.999896 0.000000 -4.192635 5.071236 0.000000 -4.264357 5.058746 0.000000 7