<?xml version='1.0'?>
<VTKFile type='UnstructuredGrid' version='0.1' byte_order='LittleEndian'><UnstructuredGrid>
<Piece NumberOfPoints='3000' NumberOfCells='0'>
<PointData Vectors='principal_stress_direction_1 principal_stress_direction_2 principal_stress_direction_3'>
<DataArray type='Float32' Name='principal_stress_direction_1' NumberOfComponents='3' format='ascii'>
0.999999 0.001449 0.000000 0.605165 -0.796100 0.000000 0.882178 -0.470916 0.000000 0.726895 -0.686749 0.000000 0.623933 -0.781478 0.000000 0.758527 -0.651642 0.000000 0.013960 -0.999903 0.000000 0.236483 -0.971636 0.000000 -0.157007 -0.987598 0.000000 -0.682906 -0.730506 0.000000 -0.855735 -0.517415 0.000000 -0.377030 -0.926201 0.000000 -0.958768 -0.284189 0.000000 -0.891991 -0.452054 0.000000 0.996729 0.080812 0.000000 -0.681620 0.731706 0.000000 -0.932070 0.362278 0.000000 -0.597791 0.801652 0.000000 0.724203 0.689587 0.000000 -0.958394 0.285449 0.000000 0.050696 0.998714 0.000000 0.853080 -0.521780 0.000000 0.720416 -0.693542 0.000000 0.592038 -0.805910 0.000000 0.679178 -0.733973 0.000000 0.665661 -0.746254 0.000000 0.589030 -0.808111 0.000000 0.321190 -0.947015 0.000000 0.193588 -0.981083 0.000000 0.235080 -0.971976 0.000000 -0.151390 -0.988474 0.000000 -0.355249 -0.934772 0.000000 -0.656024 -0.754740 0.000000 -0.343120 -0.939292 0.000000 -0.711882 -0.702300 0.000000 -0.622476 -0.782639 0.000000 -0.730515 -0.682896 0.000000 -0.756053 -0.654510 0.000000 0.954862 0.297050 0.000000 -0.684474 -0.729037 0.000000 -0.689221 0.724551 0.000000 -0.058275 0.998301 0.000000 0.630410 0.776262 0.000000 0.900634 0.434579 0.000000 0.464049 0.885810 0.000000 0.997256 -0.074029 0.000000 -0.999986 -0.005356 0.000000 -0.326431 0.945221 0.000000 -0.984772 -0.173848 0.000000 -0.009433 0.999956 0.000000 0.863230 -0.504811 0.000000 -0.998591 -0.053060 0.000000 0.968711 -0.248193 0.000000 0.734378 -0.678740 0.000000 0.818794 -0.574087 0.000000 0.651663 -0.758509 0.000000 0.631718 -0.775198 0.000000 0.595551 -0.803318 0.000000 0.441661 -0.897182 0.000000 0.207468 -0.978242 0.000000 0.362567 -0.931958 0.000000 0.346910 -0.937898 0.000000 0.068234 -0.997669 0.000000 -0.399823 -0.916593 0.000000 -0.128211 -0.991747 0.000000 -0.111469 -0.993768 0.000000 -0.406057 -0.913848 0.000000 -0.616505 -0.787351 0.000000 -0.472086 -0.881552 0.000000 -0.683610 -0.729847 0.000000 -0.655087 -0.755553 0.000000 -0.734491 -0.678619 0.000000 -0.857474 -0.514527 0.000000 0.451480 0.892281 0.000000 -0.970341 -0.241742 0.000000 -0.880874 -0.473352 0.000000 -0.994593 -0.103853 0.000000 0.969456 -0.245267 0.000000 0.986734 -0.162344 0.000000 0.999952 -0.009841 0.000000 -0.998554 -0.053752 0.000000 0.878389 -0.477946 0.000000 0.922265 -0.386559 0.000000 0.974151 -0.225897 0.000000 0.936589 -0.350429 0.000000 -0.999903 -0.013951 0.000000 0.989587 -0.143938 0.000000 0.998172 -0.060430 0.000000 0.999697 -0.024612 0.000000 0.997131 -0.075690 0.000000 0.963961 -0.266042 0.000000 0.969434 -0.245352 0.000000 0.864591 -0.502477 0.000000 0.844338 -0.535811 0.000000 0.688324 -0.725403 0.000000 0.768932 -0.639330 0.000000 0.687327 -0.726348 0.000000 0.518273 -0.855215 0.000000 0.514466 -0.857511 0.000000 0.360660 -0.932697 0.000000 0.364048 -0.931380 0.000000 0.230347 -0.973109 0.000000 0.081580 -0.996667 0.000000 0.076942 -0.997036 0.000000 -0.312290 -0.949987 0.000000 -0.113594 -0.993527 0.000000 -0.123134 -0.992390 0.000000 -0.331062 -0.943609 0.000000 -0.564858 -0.825188 0.000000 -0.553015 -0.833172 0.000000 -0.417681 -0.908594 0.000000 -0.689682 -0.724112 0.000000 -0.696114 -0.717931 0.000000 -0.827040 -0.562144 0.000000 -0.998460 -0.055470 0.000000 -0.938278 -0.345882 0.000000 -0.873095 -0.487550 0.000000 -0.969125 -0.246568 0.000000 -0.994721 -0.102621 0.000000 -0.997228 -0.074404 0.000000 -0.999817 -0.019122 0.000000 0.999978 -0.006607 0.000000 -0.935072 -0.354457 0.000000 -0.991104 -0.133088 0.000000 -0.976448 -0.215751 0.000000 -0.932494 -0.361185 0.000000 -0.887526 -0.460757 0.000000 0.769558 -0.638577 0.000000 0.905156 -0.425079 0.000000 0.840029 -0.542541 0.000000 0.859258 -0.511542 0.000000 0.907266 -0.420557 0.000000 0.945679 -0.325101 0.000000 0.961545 -0.274647 0.000000 0.986944 -0.161065 0.000000 0.971535 -0.236894 0.000000 0.987933 -0.154881 0.000000 0.970764 -0.240037 0.000000 0.983611 -0.180302 0.000000 0.944902 -0.327354 0.000000 0.926039 -0.377428 0.000000 0.890797 -0.454402 0.000000 0.866680 -0.498865 0.000000 0.783504 -0.621387 0.000000 0.636499 -0.771277 0.000000 0.759936 -0.649998 0.000000 0.639726 -0.768603 0.000000 0.516393 -0.856352 0.000000 0.250892 -0.968015 0.000000 0.439846 -0.898073 0.000000 0.381331 -0.924439 0.000000 0.195809 -0.980642 0.000000 0.075636 -0.997136 0.000000 0.075813 -0.997122 0.000000 -0.259566 -0.965725 0.000000 -0.071003 -0.997476 0.000000 -0.106772 -0.994284 0.000000 -0.300752 -0.953702 0.000000 -0.550468 -0.834856 0.000000 -0.396368 -0.918092 0.000000 -0.515755 -0.856736 0.000000 -0.706802 -0.707412 0.000000 -0.683300 -0.730138 0.000000 -0.789057 -0.614320 0.000000 -0.935892 -0.352286 0.000000 -0.887169 -0.461445 0.000000 -0.821852 -0.569701 0.000000 -0.920632 -0.390431 0.000000 -0.968870 -0.247571 0.000000 -0.943753 -0.330652 0.000000 -0.990299 -0.138953 0.000000 -0.982289 -0.187370 0.000000 -0.986071 -0.166326 0.000000 -0.951694 -0.307049 0.000000 -0.971998 -0.234991 0.000000 -0.948942 -0.315451 0.000000 -0.841019 -0.541006 0.000000 -0.909114 -0.416548 0.000000 -0.900083 -0.435719 0.000000 -0.796611 -0.604493 0.000000 -0.876037 -0.482245 0.000000 0.740156 -0.672435 0.000000 0.891068 -0.453870 0.000000 0.830756 -0.556637 0.000000 0.850249 -0.526381 0.000000 0.920439 -0.390885 0.000000 0.892228 -0.451586 0.000000 0.902444 -0.430806 0.000000 0.929436 -0.368984 0.000000 0.927985 -0.372618 0.000000 0.946242 -0.323459 0.000000 0.944828 -0.327566 0.000000 0.940342 -0.340231 0.000000 0.942981 -0.332846 0.000000 0.944596 -0.328235 0.000000 0.870563 -0.492058 0.000000 0.834382 -0.551187 0.000000 0.860300 -0.509788 0.000000 0.849035 -0.528336 0.000000 0.726011 -0.687684 0.000000 0.623515 -0.781812 0.000000 0.716233 -0.697861 0.000000 0.651714 -0.758464 0.000000 0.487712 -0.873004 0.000000 0.447132 -0.894468 0.000000 0.292264 -0.956338 0.000000 0.249860 -0.968282 0.000000 0.153672 -0.988122 0.000000 -0.081417 -0.996680 0.000000 0.051971 -0.998649 0.000000 0.027325 -0.999627 0.000000 -0.126376 -0.991982 0.000000 -0.265373 -0.964146 0.000000 -0.307191 -0.951648 0.000000 -0.354317 -0.935125 0.000000 -0.467909 -0.883777 0.000000 -0.508851 -0.860855 0.000000 -0.617424 -0.786630 0.000000 -0.792154 -0.610322 0.000000 -0.750785 -0.660547 0.000000 -0.694162 -0.719818 0.000000 -0.837307 -0.546733 0.000000 -0.820677 -0.571393 0.000000 -0.862310 -0.506382 0.000000 -0.944945 -0.327229 0.000000 -0.938558 -0.345120 0.000000 -0.874323 -0.485345 0.000000 -0.934202 -0.356744 0.000000 -0.944865 -0.327461 0.000000 -0.933726 -0.357988 0.000000 -0.911627 -0.411018 0.000000 -0.922579 -0.385808 0.000000 -0.881488 -0.472207 0.000000 -0.930026 -0.367495 0.000000 -0.883834 -0.467801 0.000000 -0.915271 -0.402839 0.000000 -0.842395 -0.538861 0.000000 -0.763933 -0.645296 0.000000 -0.849878 -0.526979 0.000000 0.687590 -0.726099 0.000000 0.807056 -0.590475 0.000000 0.795171 -0.606385 0.000000 0.845025 -0.534727 0.000000 0.890274 -0.455424 0.000000 0.889082 -0.457749 0.000000 0.891139 -0.453731 0.000000 0.885316 -0.464990 0.000000 0.905126 -0.425143 0.000000 0.875509 -0.483201 0.000000 0.894404 -0.447260 0.000000 0.912501 -0.409074 0.000000 0.903423 -0.428751 0.000000 0.896953 -0.442125 0.000000 0.874147 -0.485661 0.000000 0.868557 -0.495589 0.000000 0.825439 -0.564492 0.000000 0.824372 -0.566048 0.000000 0.733068 -0.680155 0.000000 0.701135 -0.713029 0.000000 0.730637 -0.682766 0.000000 0.709940 -0.704262 0.000000 0.560994 -0.827820 0.000000 0.530313 -0.847802 0.000000 0.408127 -0.912925 0.000000 0.353505 -0.935433 0.000000 0.298233 -0.954493 0.000000 0.188845 -0.982007 0.000000 0.154661 -0.987968 0.000000 0.062945 -0.998017 0.000000 0.025563 -0.999673 0.000000 -0.253372 -0.967369 0.000000 -0.091512 -0.995804 0.000000 -0.144373 -0.989523 0.000000 -0.270090 -0.962835 0.000000 -0.382050 -0.924142 0.000000 -0.429360 -0.903133 0.000000 -0.608791 -0.793331 0.000000 -0.460868 -0.887468 0.000000 -0.563356 -0.826214 0.000000 -0.720554 -0.693399 0.000000 -0.675920 -0.736975 0.000000 -0.742312 -0.670055 0.000000 -0.814681 -0.579909 0.000000 -0.744379 -0.667757 0.000000 -0.871305 -0.490742 0.000000 -0.805691 -0.592336 0.000000 -0.874972 -0.484173 0.000000 -0.864827 -0.502070 0.000000 -0.877641 -0.479319 0.000000 -0.877777 -0.479070 0.000000 -0.900096 -0.435692 0.000000 -0.859731 -0.510747 0.000000 -0.871311 -0.490730 0.000000 -0.885724 -0.464213 0.000000 -0.914155 -0.405365 0.000000 -0.904766 -0.425908 0.000000 -0.850055 -0.526694 0.000000 -0.824716 -0.565547 0.000000 -0.874014 -0.485902 0.000000 -0.720720 -0.693226 0.000000 -0.811712 -0.584058 0.000000 0.687230 -0.726440 0.000000 0.863721 -0.503970 0.000000 0.806838 -0.590773 0.000000 0.792419 -0.609977 0.000000 0.838495 -0.544909 0.000000 0.893725 -0.448615 0.000000 0.882028 -0.471197 0.000000 0.850877 -0.525364 0.000000 0.882963 -0.469443 0.000000 0.852678 -0.522437 0.000000 0.871698 -0.490043 0.000000 0.867620 -0.497228 0.000000 0.861309 -0.508082 0.000000 0.874182 -0.485598 0.000000 0.815462 -0.578810 0.000000 0.833891 -0.551929 0.000000 0.831810 -0.555061 0.000000 0.830389 -0.557184 0.000000 0.751501 -0.659732 0.000000 0.740823 -0.671701 0.000000 0.662375 -0.749173 0.000000 0.678113 -0.734957 0.000000 0.587526 -0.809206 0.000000 0.570460 -0.821326 0.000000 0.482724 -0.875773 0.000000 0.467853 -0.883806 0.000000 0.429664 -0.902989 0.000000 0.325681 -0.945480 0.000000 0.320400 -0.947282 0.000000 0.083139 -0.996538 0.000000 0.203452 -0.979085 0.000000 0.174826 -0.984599 0.000000 0.059196 -0.998246 0.000000 -0.079772 -0.996813 0.000000 -0.117786 -0.993039 0.000000 -0.347903 -0.937531 0.000000 -0.214979 -0.976619 0.000000 -0.288436 -0.957499 0.000000 -0.368917 -0.929462 0.000000 -0.459231 -0.888317 0.000000 -0.601719 -0.798708 0.000000 -0.506652 -0.862150 0.000000 -0.628034 -0.778186 0.000000 -0.735296 -0.677746 0.000000 -0.624344 -0.781150 0.000000 -0.739438 -0.673225 0.000000 -0.726898 -0.686745 0.000000 -0.775919 -0.630832 0.000000 -0.809455 -0.587182 0.000000 -0.775122 -0.631811 0.000000 -0.812731 -0.582640 0.000000 -0.862808 -0.505532 0.000000 -0.805726 -0.592289 0.000000 -0.860204 -0.509949 0.000000 -0.889371 -0.457186 0.000000 -0.842813 -0.538207 0.000000 -0.879222 -0.476413 0.000000 -0.843550 -0.537051 0.000000 -0.885750 -0.464163 0.000000 -0.854918 -0.518763 0.000000 -0.844012 -0.536325 0.000000 -0.853945 -0.520363 0.000000 -0.799954 -0.600061 0.000000 -0.820164 -0.572128 0.000000 -0.624107 -0.781339 0.000000 -0.730346 -0.683077 0.000000 0.566625 -0.823976 0.000000 0.712815 -0.701352 0.000000 0.810149 -0.586224 0.000000 0.806859 -0.590745 0.000000 0.850865 -0.525385 0.000000 0.835417 -0.549616 0.000000 0.872103 -0.489323 0.000000 0.895330 -0.445403 0.000000 0.892397 -0.451251 0.000000 0.840024 -0.542550 0.000000 0.771987 -0.635638 0.000000 0.841050 -0.540958 0.000000 0.831878 -0.554958 0.000000 0.846841 -0.531846 0.000000 0.810556 -0.585662 0.000000 0.857430 -0.514600 0.000000 0.751895 -0.659283 0.000000 0.762640 -0.646823 0.000000 0.744548 -0.667569 0.000000 0.756594 -0.653885 0.000000 0.634954 -0.772550 0.000000 0.657298 -0.753631 0.000000 0.650123 -0.759829 0.000000 0.562751 -0.826626 0.000000 0.583779 -0.811912 0.000000 0.456478 -0.889735 0.000000 0.497594 -0.867410 0.000000 0.473715 -0.880678 0.000000 0.338676 -0.940903 0.000000 0.361869 -0.932229 0.000000 0.287694 -0.957722 0.000000 0.065314 -0.997865 0.000000 0.182819 -0.983147 0.000000 0.172484 -0.985012 0.000000 0.046863 -0.998901 0.000000 -0.059902 -0.998204 0.000000 -0.080045 -0.996791 0.000000 -0.326949 -0.945042 0.000000 -0.182637 -0.983180 0.000000 -0.228717 -0.973493 0.000000 -0.456308 -0.889822 0.000000 -0.344842 -0.938661 0.000000 -0.454232 -0.890884 0.000000 -0.616651 -0.787236 0.000000 -0.618485 -0.785797 0.000000 -0.518336 -0.855177 0.000000 -0.678303 -0.734782 0.000000 -0.643000 -0.765866 0.000000 -0.691178 -0.722685 0.000000 -0.646388 -0.763008 0.000000 -0.774906 -0.632076 0.000000 -0.810951 -0.585114 0.000000 -0.726248 -0.687433 0.000000 -0.825146 -0.564920 0.000000 -0.838898 -0.544289 0.000000 -0.778556 -0.627575 0.000000 -0.839400 -0.543514 0.000000 -0.819311 -0.573349 0.000000 -0.845764 -0.533557 0.000000 -0.813575 -0.581459 0.000000 -0.851396 -0.524523 0.000000 -0.875212 -0.483740 0.000000 -0.789324 -0.613976 0.000000 -0.827699 -0.561172 0.000000 -0.855193 -0.518310 0.000000 -0.789681 -0.613518 0.000000 -0.863135 -0.504973 0.000000 -0.815948 -0.578125 0.000000 -0.690539 -0.723295 0.000000 -0.799388 -0.600815 0.000000 0.804441 -0.594032 0.000000 0.859478 -0.511172 0.000000 0.888336 -0.459194 0.000000 0.846848 -0.531834 0.000000 0.910153 -0.414272 0.000000 0.776573 -0.630028 0.000000 0.848917 -0.528527 0.000000 0.831364 -0.555729 0.000000 0.807549 -0.589800 0.000000 0.868948 -0.494903 0.000000 0.890638 -0.454714 0.000000 0.832770 -0.553619 0.000000 0.825735 -0.564059 0.000000 0.734124 -0.679016 0.000000 0.798396 -0.602133 0.000000 0.802151 -0.597121 0.000000 0.752219 -0.658913 0.000000 0.758193 -0.652031 0.000000 0.702049 -0.712129 0.000000 0.665668 -0.746248 0.000000 0.688329 -0.725399 0.000000 0.652359 -0.757910 0.000000 0.666358 -0.745632 0.000000 0.521600 -0.853190 0.000000 0.521048 -0.853528 0.000000 0.534505 -0.845165 0.000000 0.522029 -0.852928 0.000000 0.402855 -0.915264 0.000000 0.280233 -0.959932 0.000000 0.377434 -0.926037 0.000000 0.371957 -0.928250 0.000000 0.270965 -0.962589 0.000000 0.173618 -0.984813 0.000000 0.185315 -0.982679 0.000000 -0.072428 -0.997374 0.000000 0.048895 -0.998804 0.000000 0.050653 -0.998716 0.000000 -0.077657 -0.996980 0.000000 -0.298327 -0.954464 0.000000 -0.191775 -0.981439 0.000000 -0.171583 -0.985170 0.000000 -0.422213 -0.906497 0.000000 -0.289816 -0.957082 0.000000 -0.405989 -0.913878 0.000000 -0.605291 -0.796004 0.000000 -0.524685 -0.851296 0.000000 -0.483194 -0.875513 0.000000 -0.649130 -0.760677 0.000000 -0.579740 -0.814801 0.000000 -0.636246 -0.771486 0.000000 -0.681642 -0.731686 0.000000 -0.668116 -0.744057 0.000000 -0.763104 -0.646275 0.000000 -0.661144 -0.750259 0.000000 -0.766351 -0.642422 0.000000 -0.820055 -0.572285 0.000000 -0.685315 -0.728247 0.000000 -0.791819 -0.610755 0.000000 -0.752341 -0.658774 0.000000 -0.814667 -0.579929 0.000000 -0.818129 -0.575035 0.000000 -0.815188 -0.579197 0.000000 -0.812992 -0.582275 0.000000 -0.849900 -0.526944 0.000000 -0.847744 -0.530406 0.000000 -0.911975 -0.410245 0.000000 -0.759770 -0.650192 0.000000 -0.809704 -0.586838 0.000000 -0.756482 -0.654015 0.000000 -0.222765 -0.974872 0.000000 -0.687074 -0.726587 0.000000 -0.546972 -0.837151 0.000000 0.998284 0.058560 0.000000 -0.547202 0.837000 0.000000 0.652778 -0.757549 0.000000 0.773037 0.634361 0.000000 0.804223 -0.594327 0.000000 0.854002 -0.520270 0.000000 0.872992 -0.487735 0.000000 0.877928 -0.478793 0.000000 0.737940 -0.674867 0.000000 0.870651 -0.491901 0.000000 0.791147 -0.611627 0.000000 0.835023 -0.550215 0.000000 0.722072 -0.691818 0.000000 0.813902 -0.581002 0.000000 0.680317 -0.732918 0.000000 0.739885 -0.672733 0.000000 0.726603 -0.687058 0.000000 0.714133 -0.700010 0.000000 0.710556 -0.703641 0.000000 0.715581 -0.698529 0.000000 0.692388 -0.721525 0.000000 0.612612 -0.790383 0.000000 0.603832 -0.797112 0.000000 0.547159 -0.837029 0.000000 0.572860 -0.819653 0.000000 0.463576 -0.886057 0.000000 0.521940 -0.852982 0.000000 0.396566 -0.918006 0.000000 0.421868 -0.906657 0.000000 0.265419 -0.964133 0.000000 0.355569 -0.934650 0.000000 0.312467 -0.949929 0.000000 0.182668 -0.983175 0.000000 0.240152 -0.970735 0.000000 0.147091 -0.989123 0.000000 0.048041 -0.998845 0.000000 0.059044 -0.998255 0.000000 -0.168985 -0.985619 0.000000 -0.059253 -0.998243 0.000000 -0.044374 -0.999015 0.000000 -0.146297 -0.989241 0.000000 -0.309351 -0.950948 0.000000 -0.392679 -0.919675 0.000000 -0.272917 -0.962037 0.000000 -0.376438 -0.926442 0.000000 -0.422068 -0.906564 0.000000 -0.484217 -0.874948 0.000000 -0.592479 -0.805586 0.000000 -0.487767 -0.872974 0.000000 -0.617107 -0.786879 0.000000 -0.635545 -0.772063 0.000000 -0.598592 -0.801054 0.000000 -0.655467 -0.755224 0.000000 -0.718800 -0.695217 0.000000 -0.700574 -0.713580 0.000000 -0.620064 -0.784551 0.000000 -0.716025 -0.698074 0.000000 -0.782896 -0.622152 0.000000 -0.835472 -0.549533 0.000000 -0.629589 -0.776929 0.000000 -0.752586 -0.658493 0.000000 -0.798811 -0.601582 0.000000 -0.789745 -0.613435 0.000000 -0.807799 -0.589458 0.000000 -0.819696 -0.572799 0.000000 -0.816292 -0.577639 0.000000 -0.800015 -0.599979 0.000000 -0.832288 -0.554344 0.000000 -0.817298 -0.576216 0.000000 -0.775839 -0.630931 0.000000 -0.873537 -0.486757 0.000000 0.782012 0.623263 0.000000 0.779836 0.625984 0.000000 -0.707154 0.707060 0.000000 -0.907908 0.419169 0.000000 -0.739756 0.672876 0.000000 0.468795 0.883307 0.000000 -0.163861 0.986483 0.000000 0.701437 0.712732 0.000000 0.902223 -0.431270 0.000000 0.900501 -0.434854 0.000000 0.828547 -0.559920 0.000000 0.789326 -0.613974 0.000000 0.812264 -0.583289 0.000000 0.669999 -0.742362 0.000000 0.756840 -0.653600 0.000000 0.745380 -0.666640 0.000000 0.792041 -0.610467 0.000000 0.738794 -0.673931 0.000000 0.731522 -0.681817 0.000000 0.663471 -0.748202 0.000000 0.678441 -0.734655 0.000000 0.691487 -0.722389 0.000000 0.607837 -0.794061 0.000000 0.611462 -0.791273 0.000000 0.657731 -0.753253 0.000000 0.589771 -0.807570 0.000000 0.524118 -0.851646 0.000000 0.477690 -0.878529 0.000000 0.495055 -0.868862 0.000000 0.474457 -0.880279 0.000000 0.441891 -0.897069 0.000000 0.382839 -0.923815 0.000000 0.220738 -0.975333 0.000000 0.349239 -0.937034 0.000000 0.308782 -0.951133 0.000000 0.193838 -0.981034 0.000000 0.155972 -0.987762 0.000000 0.106521 -0.994310 0.000000 -0.048504 -0.998823 0.000000 0.055527 -0.998457 0.000000 0.021670 -0.999765 0.000000 -0.192237 -0.981348 0.000000 -0.037304 -0.999304 0.000000 -0.158195 -0.987408 0.000000 -0.324626 -0.945842 0.000000 -0.225377 -0.974272 0.000000 -0.300852 -0.953671 0.000000 -0.311375 -0.950287 0.000000 -0.401737 -0.915755 0.000000 -0.443871 -0.896091 0.000000 -0.402750 -0.915310 0.000000 -0.536134 -0.844133 0.000000 -0.579168 -0.815208 0.000000 -0.504092 -0.863650 0.000000 -0.644088 -0.764951 0.000000 -0.626727 -0.779239 0.000000 -0.551839 -0.833951 0.000000 -0.676917 -0.736059 0.000000 -0.716602 -0.697483 0.000000 -0.779772 -0.626063 0.000000 -0.605042 -0.796193 0.000000 -0.726102 -0.687587 0.000000 -0.790541 -0.612410 0.000000 -0.649944 -0.759982 0.000000 -0.730132 -0.683306 0.000000 -0.805474 -0.592631 0.000000 -0.789863 -0.613283 0.000000 -0.811243 -0.584709 0.000000 -0.737766 -0.675057 0.000000 -0.756158 -0.654389 0.000000 -0.794637 -0.607085 0.000000 -0.937607 -0.347698 0.000000 -0.815691 -0.578487 0.000000 -0.981448 0.191731 0.000000 -0.487459 0.873146 0.000000 0.750830 0.660495 0.000000 -0.910719 0.413026 0.000000 -0.582678 0.812703 0.000000 -0.862232 0.506514 0.000000 -0.850781 0.525521 0.000000 -0.697461 0.716623 0.000000 -0.985939 0.167106 0.000000 -0.832620 0.553845 0.000000 0.377950 0.925826 0.000000 0.835291 -0.549807 0.000000 0.810231 -0.586110 0.000000 0.372025 -0.928223 0.000000 0.815148 -0.579253 0.000000 0.768740 -0.639561 0.000000 0.673622 -0.739076 0.000000 0.680021 -0.733193 0.000000 0.736545 -0.676389 0.000000 0.741952 -0.670453 0.000000 0.692186 -0.721719 0.000000 0.708460 -0.705751 0.000000 0.697021 -0.717050 0.000000 0.621742 -0.783222 0.000000 0.676620 -0.736333 0.000000 0.582837 -0.812589 0.000000 0.590277 -0.807201 0.000000 0.490835 -0.871252 0.000000 0.517879 -0.855454 0.000000 0.455945 -0.890008 0.000000 0.500499 -0.865737 0.000000 0.434925 -0.900467 0.000000 0.443402 -0.896323 0.000000 0.386247 -0.922396 0.000000 0.337555 -0.941306 0.000000 0.280480 -0.959860 0.000000 0.323811 -0.946122 0.000000 0.214836 -0.976650 0.000000 0.160699 -0.987003 0.000000 0.091141 -0.995838 0.000000 0.095080 -0.995470 0.000000 -0.094018 -0.995571 0.000000 0.080440 -0.996759 0.000000 0.032976 -0.999456 0.000000 -0.198603 -0.980080 0.000000 -0.064554 -0.997914 0.000000 -0.248690 -0.968583 0.000000 -0.147867 -0.989007 0.000000 -0.357153 -0.934046 0.000000 -0.184240 -0.982881 0.000000 -0.297543 -0.954708 0.000000 -0.473862 -0.880599 0.000000 -0.383936 -0.923360 0.000000 -0.371536 -0.928419 0.000000 -0.430144 -0.902760 0.000000 -0.554788 -0.831992 0.000000 -0.487993 -0.872847 0.000000 -0.537831 -0.843053 0.000000 -0.542117 -0.840303 0.000000 -0.623316 -0.781970 0.000000 -0.613097 -0.790008 0.000000 -0.689129 -0.724639 0.000000 -0.577197 -0.816605 0.000000 -0.734777 -0.678309 0.000000 -0.618922 -0.785453 0.000000 -0.753992 -0.656883 0.000000 -0.668597 -0.743625 0.000000 -0.791497 -0.611173 0.000000 -0.658920 -0.752213 0.000000 -0.668302 -0.743890 0.000000 -0.744670 -0.667433 0.000000 -0.790924 -0.611915 0.000000 -0.871961 -0.489575 0.000000 -0.874869 -0.484359 0.000000 -0.248874 0.968536 0.000000 0.852036 0.523483 0.000000 0.548735 0.835996 0.000000 -0.993944 0.109886 0.000000 0.533541 0.845774 0.000000 0.560785 0.827962 0.000000 0.855587 0.517659 0.000000 0.813605 0.581418 0.000000 -0.876810 0.480837 0.000000 -0.583887 0.811835 0.000000 -0.722568 0.691300 0.000000 -0.899547 0.436823 0.000000 -0.668690 0.743541 0.000000 -0.660346 0.750962 0.000000 -0.996720 0.080929 0.000000 -0.318051 0.948074 0.000000 0.558708 -0.829364 0.000000 0.959938 0.280213 0.000000 0.607824 0.794071 0.000000 0.882303 0.470682 0.000000 0.797388 -0.603467 0.000000 0.720013 -0.693960 0.000000 0.710293 -0.703906 0.000000 0.696047 -0.717996 0.000000 0.739395 -0.673272 0.000000 0.561921 -0.827191 0.000000 0.667140 -0.744932 0.000000 0.662037 -0.749471 0.000000 0.623472 -0.781845 0.000000 0.559291 -0.828971 0.000000 0.509522 -0.860458 0.000000 0.569841 -0.821755 0.000000 0.534030 -0.845466 0.000000 0.465285 -0.885161 0.000000 0.398239 -0.917282 0.000000 0.432021 -0.901863 0.000000 0.485837 -0.874050 0.000000 0.395941 -0.918276 0.000000 0.259317 -0.965792 0.000000 0.296551 -0.955017 0.000000 0.369836 -0.929097 0.000000 0.300817 -0.953682 0.000000 0.257515 -0.966274 0.000000 0.173740 -0.984792 0.000000 0.007032 -0.999975 0.000000 0.156132 -0.987736 0.000000 0.081845 -0.996645 0.000000 0.094712 -0.995505 0.000000 -0.084377 -0.996434 0.000000 -0.067277 -0.997734 0.000000 -0.239319 -0.970941 0.000000 -0.130400 -0.991461 0.000000 -0.198040 -0.980194 0.000000 -0.212469 -0.977168 0.000000 -0.254620 -0.967041 0.000000 -0.347545 -0.937663 0.000000 -0.391891 -0.920012 0.000000 -0.310807 -0.950473 0.000000 -0.508868 -0.860845 0.000000 -0.323141 -0.946351 0.000000 -0.510844 -0.859674 0.000000 -0.423717 -0.905795 0.000000 -0.541674 -0.840589 0.000000 -0.437682 -0.899130 0.000000 -0.615247 -0.788334 0.000000 -0.572354 -0.820006 0.000000 -0.652862 -0.757477 0.000000 -0.493974 -0.869477 0.000000 -0.675771 -0.737112 0.000000 -0.713123 -0.701039 0.000000 -0.576068 -0.817402 0.000000 -0.685716 -0.727869 0.000000 -0.708392 -0.705819 0.000000 -0.687802 -0.725899 0.000000 -0.761459 -0.648213 0.000000 -0.801949 -0.597393 0.000000 -0.712604 -0.701567 0.000000 -0.552047 -0.833813 0.000000 0.953638 0.300955 0.000000 -0.595647 0.803246 0.000000 0.855988 0.516996 0.000000 0.975361 0.220615 0.000000 0.899358 0.437214 0.000000 0.794245 0.607597 0.000000 0.660610 0.750729 0.000000 0.618854 0.785506 0.000000 0.780131 0.625616 0.000000 0.780806 0.624774 0.000000 1.000000 0.000000 0.000000 -0.635644 0.771982 0.000000 -0.582822 0.812600 0.000000 -0.838174 0.545403 0.000000 -0.784060 0.620686 0.000000 -0.817531 0.575885 0.000000 -0.702012 0.712165 0.000000 -0.695818 0.718218 0.000000 -0.566959 0.823746 0.000000 0.644556 0.764557 0.000000 -0.417551 0.908653 0.000000 -0.467507 0.883989 0.000000 0.672672 0.739941 0.000000 0.797957 -0.602715 0.000000 0.240981 0.970530 0.000000 0.476885 -0.878965 0.000000 0.710196 -0.704004 0.000000 0.686698 -0.726943 0.000000 0.602749 -0.797931 0.000000 0.586086 -0.810249 0.000000 0.584172 -0.811630 0.000000 0.636196 -0.771527 0.000000 0.454503 -0.890745 0.000000 0.526365 -0.850259 0.000000 0.495771 -0.868453 0.000000 0.529945 -0.848032 0.000000 0.484370 -0.874863 0.000000 0.447803 -0.894132 0.000000 0.384869 -0.922971 0.000000 0.352926 -0.935651 0.000000 0.394868 -0.918738 0.000000 0.236853 -0.971546 0.000000 0.345640 -0.938367 0.000000 0.260443 -0.965489 0.000000 0.223935 -0.974604 0.000000 0.250210 -0.968192 0.000000 0.142413 -0.989807 0.000000 -0.005846 -0.999983 0.000000 0.173172 -0.984892 0.000000 0.110717 -0.993852 0.000000 0.107383 -0.994218 0.000000 -0.085706 -0.996320 0.000000 -0.036063 -0.999350 0.000000 -0.242473 -0.970158 0.000000 -0.121476 -0.992594 0.000000 -0.073054 -0.997328 0.000000 -0.175997 -0.984391 0.000000 -0.293078 -0.956088 0.000000 -0.243153 -0.969988 0.000000 -0.417506 -0.908674 0.000000 -0.353677 -0.935368 0.000000 -0.263534 -0.964650 0.000000 -0.358203 -0.933644 0.000000 -0.528413 -0.848988 0.000000 -0.430306 -0.902683 0.000000 -0.445106 -0.895478 0.000000 -0.448152 -0.893957 0.000000 -0.594871 -0.803821 0.000000 -0.507214 -0.861820 0.000000 -0.594759 -0.803904 0.000000 -0.574971 -0.818174 0.000000 -0.659488 -0.751715 0.000000 -0.534036 -0.845462 0.000000 -0.744813 -0.667273 0.000000 -0.538723 -0.842483 0.000000 -0.570403 -0.821365 0.000000 -0.684133 -0.729357 0.000000 -0.715046 -0.699077 0.000000 -0.738207 -0.674574 0.000000 -0.636982 -0.770879 0.000000 -0.955111 0.296249 0.000000 -0.123432 0.992353 0.000000 0.548490 0.836157 0.000000 0.870869 0.491516 0.000000 0.313747 0.949506 0.000000 0.673536 0.739154 0.000000 0.801185 0.598417 0.000000 0.795340 0.606163 0.000000 0.635815 0.771841 0.000000 1.000000 0.000000 0.000000 0.352026 0.935990 0.000000 0.844569 0.535447 0.000000 1.000000 0.000000 0.000000 1.000000 0.000000 0.000000 -0.850492 0.525988 0.000000 1.000000 0.000000 0.000000 -0.419751 0.907639 0.000000 -0.788264 0.615338 0.000000 -0.852209 0.523202 0.000000 -0.521570 0.853208 0.000000 -0.808677 0.588253 0.000000 -0.780520 0.625131 0.000000 -0.740778 0.671750 0.000000 -0.831547 0.555454 0.000000 0.988780 0.149381 0.000000 -0.999993 0.003775 0.000000 -0.560713 0.828011 0.000000 0.780678 0.624934 0.000000 0.540578 -0.841294 0.000000 0.537698 -0.843138 0.000000 0.760788 -0.649001 0.000000 0.484849 -0.874598 0.000000 0.658035 -0.752988 0.000000 0.510489 -0.859885 0.000000 0.466075 -0.884745 0.000000 0.531754 -0.846899 0.000000 0.535094 -0.844792 0.000000 0.485865 -0.874034 0.000000 0.519264 -0.854614 0.000000 0.400176 -0.916439 0.000000 0.312912 -0.949782 0.000000 0.439659 -0.898165 0.000000 0.330276 -0.943884 0.000000 0.385470 -0.922720 0.000000 0.193242 -0.981151 0.000000 0.267244 -0.963629 0.000000 0.366914 -0.930255 0.000000 0.211024 -0.977481 0.000000 0.095818 -0.995399 0.000000 0.192429 -0.981311 0.000000 0.147377 -0.989080 0.000000 -0.002691 -0.999996 0.000000 0.157138 -0.987577 0.000000 0.113714 -0.993514 0.000000 -0.123051 -0.992400 0.000000 0.034464 -0.999406 0.000000 -0.084266 -0.996443 0.000000 -0.012497 -0.999922 0.000000 -0.272511 -0.962153 0.000000 -0.163911 -0.986475 0.000000 -0.217291 -0.976107 0.000000 -0.320259 -0.947330 0.000000 -0.214319 -0.976764 0.000000 -0.237063 -0.971494 0.000000 -0.431610 -0.902060 0.000000 -0.362722 -0.931897 0.000000 -0.472656 -0.881247 0.000000 -0.294640 -0.955608 0.000000 -0.391892 -0.920011 0.000000 -0.566835 -0.823831 0.000000 -0.613736 -0.789512 0.000000 -0.435672 -0.900106 0.000000 -0.631916 -0.775037 0.000000 -0.653018 -0.757343 0.000000 -0.508738 -0.860922 0.000000 -0.670216 -0.742166 0.000000 -0.515496 -0.856892 0.000000 -0.766727 -0.641974 0.000000 -0.486260 -0.873814 0.000000 -0.679966 -0.733244 0.000000 -0.696133 -0.717913 0.000000 -0.771862 0.635790 0.000000 -0.053825 0.998550 0.000000 0.745521 0.666482 0.000000 0.167570 0.985860 0.000000 0.770360 0.637609 0.000000 0.515084 0.857140 0.000000 0.852498 0.522730 0.000000 0.639801 0.768541 0.000000 0.866179 0.499734 0.000000 0.786219 0.617948 0.000000 0.556452 0.830880 0.000000 0.989646 0.143530 0.000000 1.000000 0.000000 0.000000 1.000000 0.000000 0.000000 1.000000 0.000000 0.000000 1.000000 0.000000 0.000000 1.000000 0.000000 0.000000 1.000000 0.000000 0.000000 -0.465496 0.885050 0.000000 1.000000 0.000000 0.000000 -0.773921 0.633282 0.000000 -0.587432 0.809274 0.000000 -0.485563 0.874202 0.000000 -0.717970 0.696074 0.000000 -0.779105 0.626893 0.000000 -0.601085 0.799185 0.000000 -0.834725 0.550668 0.000000 -0.763416 0.645908 0.000000 -0.977694 0.210036 0.000000 -0.706172 0.708041 0.000000 0.549510 -0.835487 0.000000 0.601835 -0.798620 0.000000 0.681296 0.732008 0.000000 0.643334 -0.765586 0.000000 0.684300 -0.729200 0.000000 0.558119 -0.829761 0.000000 0.606875 -0.794797 0.000000 0.555692 -0.831388 0.000000 0.471672 -0.881774 0.000000 0.505034 -0.863099 0.000000 0.373404 -0.927669 0.000000 0.335557 -0.942020 0.000000 0.334951 -0.942236 0.000000 0.361767 -0.932268 0.000000 0.405510 -0.914091 0.000000 0.333079 -0.942899 0.000000 0.323428 -0.946253 0.000000 0.296092 -0.955159 0.000000 0.167724 -0.985834 0.000000 0.244344 -0.969689 0.000000 0.050273 -0.998736 0.000000 0.254237 -0.967142 0.000000 0.125546 -0.992088 0.000000 -0.014327 -0.999897 0.000000 0.136131 -0.990691 0.000000 0.039097 -0.999235 0.000000 -0.158366 -0.987381 0.000000 0.047790 -0.998857 0.000000 -0.036231 -0.999343 0.000000 -0.063707 -0.997969 0.000000 -0.143913 -0.989590 0.000000 -0.141174 -0.989985 0.000000 -0.323316 -0.946291 0.000000 -0.251556 -0.967843 0.000000 -0.267063 -0.963679 0.000000 -0.236803 -0.971558 0.000000 -0.434805 -0.900524 0.000000 -0.337511 -0.941322 0.000000 -0.290455 -0.956889 0.000000 -0.402628 -0.915364 0.000000 -0.501936 -0.864905 0.000000 -0.323681 -0.946166 0.000000 -0.588588 -0.808433 0.000000 -0.393354 -0.919387 0.000000 -0.629749 -0.776799 0.000000 -0.536182 -0.844102 0.000000 -0.581406 -0.813614 0.000000 -0.691268 -0.722599 0.000000 -0.426213 -0.90