<?xml version='1.0'?>
<VTKFile type='PolyData' version='0.1' byte_order='LittleEndian'><PolyData>
<Piece NumberOfPoints='864' NumberOfVerts='0' NumberOfLines='0' NumberOfStrips='0' NumberOfPolys='216'>
<Points>
<DataArray type='Float32' NumberOfComponents='3' format='ascii'>
10.696344 48.842212 0.000000 10.696344 48.842212 0.000000 7.668927 49.407393 0.000000 7.668927 49.407393 0.000000 7.668927 49.407393 0.000000 7.668927 49.407393 0.000000 10.696344 48.842212 0.000000 10.696344 48.842212 0.000000 7.668920 49.407390 0.000000 7.668920 49.407390 0.000000 4.612643 49.784603 0.000000 4.612643 49.784603 0.000000 4.612643 49.784603 0.000000 4.612643 49.784603 0.000000 7.668920 49.407390 0.000000 7.668920 49.407390 0.000000 4.612659 49.784584 0.000000 4.612659 49.784584 0.000000 1.641207 49.970384 0.000000 1.641207 49.970384 0.000000 1.641207 49.970384 0.000000 1.641207 49.970384 0.000000 4.612659 49.784584 0.000000 4.612659 49.784584 0.000000 1.641199 49.970070 0.000000 1.641199 49.970070 0.000000 -1.641207 49.970065 0.000000 -1.641207 49.970065 0.000000 -1.641207 49.970065 0.000000 -1.641207 49.970065 0.000000 1.641199 49.970070 0.000000 1.641199 49.970070 0.000000 -1.641175 49.970337 0.000000 -1.641175 49.970337 0.000000 -4.612543 49.784678 0.000000 -4.612543 49.784678 0.000000 -4.612543 49.784678 0.000000 -4.612543 49.784678 0.000000 -1.641175 49.970337 0.000000 -1.641175 49.970337 0.000000 -4.612540 49.784673 0.000000 -4.612540 49.784673 0.000000 -7.668909 49.407416 0.000000 -7.668909 49.407416 0.000000 -7.668909 49.407416 0.000000 -7.668909 49.407416 0.000000 -4.612540 49.784673 0.000000 -4.612540 49.784673 0.000000 -7.668919 49.407416 0.000000 -7.668919 49.407416 0.000000 -10.696329 48.842226 0.000000 -10.696329 48.842226 0.000000 -10.696329 48.842226 0.000000 -10.696329 48.842226 0.000000 -7.668919 49.407416 0.000000 -7.668919 49.407416 0.000000 19.489360 46.045283 0.000000 19.489360 46.045283 0.000000 16.617796 47.157749 0.000000 16.617796 47.157749 0.000000 16.617796 47.157749 0.000000 16.617796 47.157749 0.000000 19.489360 46.045283 0.000000 19.489360 46.045283 0.000000 16.617794 47.157749 0.000000 16.617794 47.157749 0.000000 13.683109 48.091320 0.000000 13.683109 48.091320 0.000000 13.683109 48.091320 0.000000 13.683109 48.091320 0.000000 16.617794 47.157749 0.000000 16.617794 47.157749 0.000000 13.683092 48.091326 0.000000 13.683092 48.091326 0.000000 10.696358 48.842209 0.000000 10.696358 48.842209 0.000000 10.696358 48.842209 0.000000 10.696358 48.842209 0.000000 13.683092 48.091326 0.000000 13.683092 48.091326 0.000000 -10.696343 48.842222 0.000000 -10.696343 48.842222 0.000000 -13.683086 48.091337 0.000000 -13.683086 48.091337 0.000000 -13.683086 48.091337 0.000000 -13.683086 48.091337 0.000000 -10.696343 48.842222 0.000000 -10.696343 48.842222 0.000000 -16.617796 47.157753 0.000000 -16.617796 47.157753 0.000000 -19.489356 46.045283 0.000000 -19.489356 46.045283 0.000000 -19.489356 46.045283 0.000000 -19.489356 46.045283 0.000000 -16.617796 47.157753 0.000000 -16.617796 47.157753 0.000000 -13.683104 48.091330 0.000000 -13.683104 48.091330 0.000000 -16.617794 47.157753 0.000000 -16.617794 47.157753 0.000000 -16.617794 47.157753 0.000000 -16.617794 47.157753 0.000000 -13.683104 48.091330 0.000000 -13.683104 48.091330 0.000000 22.286956 44.758159 0.000000 22.286956 44.758159 0.000000 19.489359 46.045281 0.000000 19.489359 46.045281 0.000000 19.489359 46.045281 0.000000 19.489359 46.045281 0.000000 22.286956 44.758159 0.000000 22.286956 44.758159 0.000000 -19.489356 46.045281 0.000000 -19.489356 46.045281 0.000000 -22.286954 44.758159 0.000000 -22.286954 44.758159 0.000000 -22.286954 44.758159 0.000000 -22.286954 44.758159 0.000000 -19.489356 46.045281 0.000000 -19.489356 46.045281 0.000000 27.618254 41.680117 0.000000 27.618254 41.680117 0.000000 25.000016 43.301266 0.000000 25.000016 43.301266 0.000000 25.000016 43.301266 0.000000 25.000016 43.301266 0.000000 27.618254 41.680117 0.000000 27.618254 41.680117 0.000000 25.000017 43.301266 0.000000 25.000017 43.301266 0.000000 22.286955 44.758160 0.000000 22.286955 44.758160 0.000000 22.286955 44.758160 0.000000 22.286955 44.758160 0.000000 25.000017 43.301266 0.000000 25.000017 43.301266 0.000000 -22.286954 44.758160 0.000000 -22.286954 44.758160 0.000000 -25.000016 43.301266 0.000000 -25.000016 43.301266 0.000000 -25.000016 43.301266 0.000000 -25.000016 43.301266 0.000000 -22.286954 44.758160 0.000000 -22.286954 44.758160 0.000000 -25.000015 43.301266 0.000000 -25.000015 43.301266 0.000000 -27.618254 41.680117 0.000000 -27.618254 41.680117 0.000000 -27.618254 41.680117 0.000000 -27.618254 41.680117 0.000000 -25.000015 43.301266 0.000000 -25.000015 43.301266 0.000000 32.530915 37.970246 0.000000 32.530915 37.970246 0.000000 30.131734 39.900861 0.000000 30.131734 39.900861 0.000000 30.131734 39.900861 0.000000 30.131734 39.900861 0.000000 32.530915 37.970246 0.000000 32.530915 37.970246 0.000000 30.131734 39.900861 0.000000 30.131734 39.900861 0.000000 27.618254 41.680117 0.000000 27.618254 41.680117 0.000000 27.618254 41.680117 0.000000 27.618254 41.680117 0.000000 30.131734 39.900861 0.000000 30.131734 39.900861 0.000000 -27.618254 41.680117 0.000000 -27.618254 41.680117 0.000000 -30.131734 39.900861 0.000000 -30.131734 39.900861 0.000000 -30.131734 39.900861 0.000000 -30.131734 39.900861 0.000000 -27.618254 41.680117 0.000000 -27.618254 41.680117 0.000000 -30.131733 39.900861 0.000000 -30.131733 39.900861 0.000000 -32.530915 37.970246 0.000000 -32.530915 37.970246 0.000000 -32.530915 37.970246 0.000000 -32.530915 37.970246 0.000000 -30.131733 39.900861 0.000000 -30.131733 39.900861 0.000000 34.806697 35.895596 0.000000 34.806697 35.895596 0.000000 32.530915 37.970246 0.000000 32.530915 37.970246 0.000000 32.530915 37.970246 0.000000 32.530915 37.970246 0.000000 34.806697 35.895596 0.000000 34.806697 35.895596 0.000000 -32.530915 37.970246 0.000000 -32.530915 37.970246 0.000000 -34.806697 35.895596 0.000000 -34.806697 35.895596 0.000000 -34.806697 35.895596 0.000000 -34.806697 35.895596 0.000000 -32.530915 37.970246 0.000000 -32.530915 37.970246 0.000000 36.950446 33.684782 0.000000 36.950446 33.684782 0.000000 34.806697 35.895596 0.000000 34.806697 35.895596 0.000000 34.806697 35.895596 0.000000 34.806697 35.895596 0.000000 36.950446 33.684782 0.000000 36.950446 33.684782 0.000000 -34.806697 35.895596 0.000000 -34.806697 35.895596 0.000000 -36.950446 33.684782 0.000000 -36.950446 33.684782 0.000000 -36.950446 33.684782 0.000000 -36.950446 33.684782 0.000000 -34.806697 35.895596 0.000000 -34.806697 35.895596 0.000000 38.954029 31.346190 0.000000 38.954029 31.346190 0.000000 36.950446 33.684782 0.000000 36.950446 33.684782 0.000000 36.950446 33.684782 0.000000 36.950446 33.684782 0.000000 38.954029 31.346190 0.000000 38.954029 31.346190 0.000000 -36.950446 33.684782 0.000000 -36.950446 33.684782 0.000000 -38.954029 31.346190 0.000000 -38.954029 31.346190 0.000000 -38.954029 31.346190 0.000000 -38.954029 31.346190 0.000000 -36.950446 33.684782 0.000000 -36.950446 33.684782 0.000000 40.809846 28.888692 0.000000 40.809846 28.888692 0.000000 38.954029 31.346190 0.000000 38.954029 31.346190 0.000000 38.954029 31.346190 0.000000 38.954029 31.346190 0.000000 40.809846 28.888692 0.000000 40.809846 28.888692 0.000000 -38.954029 31.346190 0.000000 -38.954029 31.346190 0.000000 -40.809846 28.888692 0.000000 -40.809846 28.888692 0.000000 -40.809846 28.888692 0.000000 -40.809846 28.888692 0.000000 -38.954029 31.346190 0.000000 -38.954029 31.346190 0.000000 42.510857 26.321608 0.000000 42.510857 26.321608 0.000000 40.809846 28.888692 0.000000 40.809846 28.888692 0.000000 40.809846 28.888692 0.000000 40.809846 28.888692 0.000000 42.510857 26.321608 0.000000 42.510857 26.321608 0.000000 -40.809846 28.888692 0.000000 -40.809846 28.888692 0.000000 -42.510857 26.321608 0.000000 -42.510857 26.321608 0.000000 -42.510857 26.321608 0.000000 -42.510857 26.321608 0.000000 -40.809846 28.888692 0.000000 -40.809846 28.888692 0.000000 44.050610 23.654678 0.000000 44.050610 23.654678 0.000000 42.510857 26.321608 0.000000 42.510857 26.321608 0.000000 42.510857 26.321608 0.000000 42.510857 26.321608 0.000000 44.050610 23.654678 0.000000 44.050610 23.654678 0.000000 -42.510857 26.321608 0.000000 -42.510857 26.321608 0.000000 -44.050610 23.654678 0.000000 -44.050610 23.654678 0.000000 -44.050610 23.654678 0.000000 -44.050610 23.654678 0.000000 -42.510857 26.321608 0.000000 -42.510857 26.321608 0.000000 45.423264 20.898017 0.000000 45.423264 20.898017 0.000000 44.050610 23.654678 0.000000 44.050610 23.654678 0.000000 44.050610 23.654678 0.000000 44.050610 23.654678 0.000000 45.423264 20.898017 0.000000 45.423264 20.898017 0.000000 -44.050610 23.654678 0.000000 -44.050610 23.654678 0.000000 -45.423264 20.898017 0.000000 -45.423264 20.898017 0.000000 -45.423264 20.898017 0.000000 -45.423264 20.898017 0.000000 -44.050610 23.654678 0.000000 -44.050610 23.654678 0.000000 46.623611 18.062083 0.000000 46.623611 18.062083 0.000000 45.423264 20.898017 0.000000 45.423264 20.898017 0.000000 45.423264 20.898017 0.000000 45.423264 20.898017 0.000000 46.623611 18.062083 0.000000 46.623611 18.062083 0.000000 -45.423264 20.898017 0.000000 -45.423264 20.898017 0.000000 -46.623611 18.062083 0.000000 -46.623611 18.062083 0.000000 -46.623611 18.062083 0.000000 -46.623611 18.062083 0.000000 -45.423264 20.898017 0.000000 -45.423264 20.898017 0.000000 47.647100 15.157634 0.000000 47.647100 15.157634 0.000000 46.623611 18.062083 0.000000 46.623611 18.062083 0.000000 46.623611 18.062083 0.000000 46.623611 18.062083 0.000000 47.647100 15.157634 0.000000 47.647100 15.157634 0.000000 -46.623611 18.062083 0.000000 -46.623611 18.062083 0.000000 -47.647100 15.157634 0.000000 -47.647100 15.157634 0.000000 -47.647100 15.157634 0.000000 -47.647100 15.157634 0.000000 -46.623611 18.062083 0.000000 -46.623611 18.062083 0.000000 48.489847 12.195686 0.000000 48.489847 12.195686 0.000000 47.647100 15.157634 0.000000 47.647100
[...]
<CellData Scalars='broken_mode_of_failure'>
<DataArray type='Float32' Name='broken_mode_of_failure' NumberOfComponents='1' format='ascii'>
0.000000 0.000000 0.000000 0.000000 0.000000 0.000000 0.000000 0.000000 0.000000 0.000000 0.000000 0.000000 0.000000 0.000000 0.000000 0.000000 0.000000 0.000000 0.000000 0.000000 0.000000 0.000000 0.000000 0.000000 0.000000 0.000000 0.000000 0.000000 0.000000 0.000000 0.000000 0.000000 0.000000 0.000000 0.000000 0.000000 0.000000 0.000000 0.000000 0.000000 0.000000 0.000000 0.000000 0.000000 0.000000 0.000000 0.000000 0.000000 0.000000 0.000000 0.000000 0.000000 0.000000 0.000000 0.000000 0.000000 0.000000 0.000000 0.000000 0.000000 0.000000 0.000000 0.000000 0.000000 0.000000 0.000000 0.000000 0.000000 0.000000 0.000000 0.000000 0.000000 0.000000 0.000000 0.000000 0.000000 0.000000 0.000000 0.000000 0.000000 0.000000 0.000000 0.000000 0.000000 0.000000 0.000000 0.000000 0.000000 0.000000 0.000000 0.000000 0.000000 0.000000 0.000000 0.000000 0.000000 0.000000 0.000000 0.000000 0.000000 0.000000 0.000000 0.000000 0.000000 0.000000 0.000000 0.000000 0.000000 0.000000 0.000000 0.000000 0.000000 0.000000 0.000000 0.000000 0.000000 0.000000 0.000000 0.000000 0.000000 0.000000 0.000000 0.000000 0.000000 0.000000 0.000000 0.000000 0.000000 0.000000 0.000000 0.000000 0.000000 0.000000 0.000000 0.000000 0.000000 0.000000 0.000000 0.000000 0.000000 0.000000 0.000000 0.000000 0.000000 0.000000 0.000000 0.000000 0.000000 0.000000 0.000000 0.000000 0.000000 0.000000 0.000000 0.000000 0.000000 0.000000 0.000000 0.000000 0.000000 0.000000 0.000000 0.000000 0.000000 0.000000 0.000000 0.000000 0.000000 0.000000 0.000000 0.000000 0.000000 0.000000 0.000000 0.000000 0.000000 0.000000 0.000000 0.000000 0.000000 0.000000 0.000000 0.000000 0.000000 0.000000 0.000000 0.000000 0.000000 0.000000 0.000000 0.000000 0.000000 0.000000 0.000000 0.000000 0.000000 0.000000 0.000000 0.000000 0.000000 0.000000 0.000000 0.000000 0.000000 0.000000 0.000000 0.000000 0.000000 0.000000 0.000000 0.000000 0.000000 0.000000 0.000000 0.000000 0.000000 
</DataArray>
<DataArray type='Float32' Name='broken_sliding' NumberOfComponents='1' format='ascii'>
0.000000000 0.000000000 0.000000000 0.000000000 0.000000000 0.000000000 -0.000000000 -0.000000000 -0.000000000 -0.000000000 -0.000000000 -0.000000000 -0.000000000 -0.000000000 0.000000000 0.000000000 0.000000000 0.000000000 0.000000000 0.000000000 -0.000000000 -0.000000000 -0.000000000 -0.000000000 -0.000000000 -0.000000000 0.000000000 0.000000000 -0.000000000 -0.000000000 0.000000000 0.000000000 0.000000000 0.000000000 -0.000000000 -0.000000000 -0.000000000 -0.000000000 0.000000000 0.000000000 0.000000000 0.000000000 -0.000000000 -0.000000000 -0.000000000 -0.000000000 0.000000000 0.000000000 -0.000000000 -0.000000000 0.000000000 0.000000000 -0.000000000 -0.000000000 0.000000000 0.000000000 -0.000000000 -0.000000000 0.000000000 0.000000000 -0.000000000 -0.000000000 0.000000000 0.000000000 -0.000000000 -0.000000000 0.000000000 0.000000000 -0.000000000 -0.000000000 0.000000000 0.000000000 -0.000000000 -0.000000000 0.000000000 0.000000000 -0.000000000 -0.000000000 0.000000000 0.000000000 -0.000000000 -0.000000000 0.000000000 0.000000000 -0.000000000 -0.000000000 0.000000000 0.000000000 -0.000000000 -0.000000000 0.000000000 0.000000000 -0.000000000 -0.000000000 0.000000000 0.000000000 -0.000000000 -0.000000000 0.000000000 0.000000000 -0.000000000 -0.000000000 0.000000000 0.000000000 0.000000000 0.000000000 0.000000000 0.000000000 0.000000000 0.000000000 0.000000000 0.000000000 0.000000000 0.000000000 0.000000000 0.000000000 0.000000000 0.000000000 0.000000000 0.000000000 0.000000000 0.000000000 0.000000000 0.000000000 0.000000000 0.000000000 0.000000000 0.000000000 0.000000000 0.000000000 0.000000000 0.000000000 0.000000000 0.000000000 0.000000000 0.000000000 0.000000000 0.000000000 0.000000000 0.000000000 0.000000000 0.000000000 0.000000000 0.000000000 0.000000000 0.000000000 0.000000000 0.000000000 0.000000000 0.000000000 0.000000000 0.000000000 0.000000000 0.000000000 0.000000000 0.000000000 0.000000000 0.000000000 0.000000000 0.000000000 0.000000000 0.000000000 0.000000000 0.000000000 0.000000000 0.000000000 0.000000000 0.000000000 0.000000000 0.000000000 0.000000000 0.000000000 0.000000000 0.000000000 0.000000000 0.000000000 0.000000000 0.000000000 0.000000000 0.000000000 0.000000000 0.000000000 0.000000000 0.000000000 0.000000000 0.000000000 0.000000000 0.000000000 0.000000000 0.000000000 0.000000000 0.000000000 0.000000000 0.000000000 0.000000000 0.000000000 0.000000000 0.000000000 0.000000000 0.000000000 0.000000000 0.000000000 0.000000000 0.000000000 0.000000000 0.000000000 -0.000000000 -0.000000000 0.000000000 0.000000000 0.000000000 0.000000000 0.000000000 0.000000000 0.000000000 0.000000000 
</DataArray>
<DataArray type='Float32' Name='broken_opening' NumberOfComponents='1' format='ascii'>
-0.000000000 -0.000000000 -0.000000000 -0.000000000 -0.000000000 -0.000000000 0.000000000 0.000000000 0.000000000 0.000000000 0.000000000 0.000000000 0.000000000 0.000000000 -0.000000000 -0.000000000 -0.000000000 -0.000000000 -0.000000000 -0.000000000 0.000000000 0.000000000 0.000000000 0.000000000 0.000000000 0.000000000 -0.000000000 -0.000000000 0.000000000 0.000000000 -0.000000000 -0.000000000 -0.000000000 -0.000000000 0.000000000 0.000000000 0.000000000 0.000000000 -0.000000000 -0.000000000 -0.000000000 -0.000000000 0.000000000 0.000000000 0.000000000 0.000000000 -0.000000000 -0.000000000 0.000000000 0.000000000 -0.000000000 -0.000000000 0.000000000 0.000000000 -0.000000000 -0.000000000 0.000000000 0.000000000 -0.000000000 -0.000000000 0.000000000 0.000000000 -0.000000000 -0.000000000 0.000000000 0.000000000 -0.000000000 -0.000000000 0.000000000 0.000000000 -0.000000000 -0.000000000 0.000000000 0.000000000 -0.000000000 -0.000000000 0.000000000 0.000000000 -0.000000000 -0.000000000 0.000000000 0.000000000 -0.000000000 -0.000000000 0.000000000 0.000000000 -0.000000000 -0.000000000 0.000000000 0.000000000 -0.000000000 -0.000000000 0.000000000 0.000000000 -0.000000000 -0.000000000 0.000000000 0.000000000 -0.000000000 -0.000000000 0.000000000 0.000000000 0.000000000 0.000000000 0.000000000 0.000000000 0.000000000 0.000000000 0.000000000 0.000000000 0.000000000 0.000000000 0.000000000 0.000000000 0.000000000 0.000000000 0.000000000 0.000000000 0.000000000 0.000000000 0.000000000 0.000000000 0.000000000 0.000000000 0.000000000 0.000000000 0.000000000 0.000000000 0.000000000 0.000000000 0.000000000 0.000000000 0.000000000 0.000000000 0.000000000 0.000000000 0.000000000 0.000000000 0.000000000 0.000000000 0.000000000 0.000000000 0.000000000 0.000000000 0.000000000 0.000000000 0.000000000 0.000000000 0.000000000 0.000000000 0.000000000 0.000000000 0.000000000 0.000000000 0.000000000 0.000000000 0.000000000 0.000000000 0.000000000 0.000000000 0.000000000 0.000000000 0.000000000 0.000000000 0.000000000 0.000000000 0.000000000 0.000000000 0.000000000 0.000000000 0.000000000 0.000000000 0.000000000 0.000000000 0.000000000 0.000000000 0.000000000 0.000000000 0.000000000 0.000000000 0.000000000 0.000000000 0.000000000 0.000000000 0.000000000 0.000000000 0.000000000 0.000000000 0.000000000 0.000000000 0.000000000 0.000000000 0.000000000 0.000000000 0.000000000 0.000000000 0.000000000 0.000000000 0.000000000 0.000000000 0.000000000 0.000000000 0.000000000 0.000000000 -0.000000000 -0.000000000 0.000000000 0.000000000 0.000000000 0.000000000 -0.000000000 -0.000000000 0.000000000 0.000000000 0.000000000 0.000000000 
</DataArray>
<DataArray type='Float32' Name='broken_area' NumberOfComponents='1' format='ascii'>
0.000000000 0.000000000 0.000000000 0.000000000 0.000000000 0.000000000 0.000000000 0.000000000 0.000000000 0.000000000 0.000000000 0.000000000 0.000000000 0.000000000 0.000000000 0.000000000 0.000000000 0.000000000 0.000000000 0.000000000 0.000000000 0.000000000 0.000000000 0.000000000 0.000000000 0.000000000 0.000000000 0.000000000 0.000000000 0.000000000 0.000000000 0.000000000 0.000000000 0.000000000 0.000000000 0.000000000 0.000000000 0.000000000 0.000000000 0.000000000 0.000000000 0.000000000 0.000000000 0.000000000 0.000000000 0.000000000 0.000000000 0.000000000 0.000000000 0.000000000 0.000000000 0.000000000 0.000000000 0.000000000 0.000000000 0.000000000 0.000000000 0.000000000 0.000000000 0.000000000 0.000000000 0.000000000 0.000000000 0.000000000 0.000000000 0.000000000 0.000000000 0.000000000 0.000000000 0.000000000 0.000000000 0.000000000 0.000000000 0.000000000 0.000000000 0.000000000 0.000000000 0.000000000 0.000000000 0.000000000 0.000000000 0.000000000 0.000000000 0.000000000 0.000000000 0.000000000 0.000000000 0.000000000 0.000000000 0.000000000 0.000000000 0.000000000 0.000000000 0.000000000 0.000000000 0.000000000 0.000000000 0.000000000 0.000000000 0.000000000 0.000000000 0.000000000 0.000000000 0.000000000 0.000000000 0.000000000 0.000000000 0.000000000 0.000000000 0.000000000 0.000000000 0.000000000 0.000000000 0.000000000 0.000000000 0.000000000 0.000000000 0.000000000 0.000000000 0.000000000 0.000000000 0.000000000 0.000000000 0.000000000 0.000000000 0.000000000 0.000000000 0.000000000 0.000000000 0.000000000 0.000000000 0.000000000 0.000000000 0.000000000 0.000000000 0.000000000 0.000000000 0.000000000 0.000000000 0.000000000 0.000000000 0.000000000 0.000000000 0.000000000 0.000000000 0.000000000 0.000000000 0.000000000 0.000000000 0.000000000 0.000000000 0.000000000 0.000000000 0.000000000 0.000000000 0.000000000 0.000000000 0.000000000 0.000000000 0.000000000 0.000000000 0.000000000 0.000000000 0.000000000 0.000000000 0.000000000 0.000000000 0.000000000 0.000000000 0.000000000 0.000000000 0.000000000 0.000000000 0.000000000 0.000000000 0.000000000 0.000000000 0.000000000 0.000000000 0.000000000 0.000000000 0.000000000 0.000000000 0.000000000 0.000000000 0.000000000 0.000000000 0.000000000 0.000000000 0.000000000 0.000000000 0.000000000 0.000000000 0.000000000 0.000000000 0.000000000 0.000000000 0.000000000 0.000000000 0.000000000 0.000000000 0.000000000 0.000000000 0.000000000 0.000000000 0.000000000 0.000000000 0.000000000 0.000000000 0.000000000 -0.000000000 -0.000000000 0.000000000 0.000000000 0.000000000 0.000000000 
</DataArray>

</CellData>
<Polys>
<DataArray type='Int32' Name='connectivity' format='ascii'>
0 1 2 3 4 5 6 7 8 9 10 11 12 13 14 15 16 17 18 19 20 21 22 23 24 25 26 27 28 29 30 31 32 33 34 35 36 37 38 39 40 41 42 43 44 45 46 47 48 49 50 51 52 53 54 55 56 57 58 59 60 61 62 63 64 65 66 67 68 69 70 71 72 73 74 75 76 77 78 79 80 81 82 83 84 85 86 87 88 89 90 91 92 93 94 95 96 97 98 99 100 101 102 103 104 105 106 107 108 109 110 111 112 113 114 115 116 117 118 119 120 121 122 123 124 125 126 127 128 129 130 131 132 133 134 135 136 137 138 139 140 141 142 143 144 145 146 147 148 149 150 151 152 153 154 155 156 157 158 159 160 161 162 163 164 165 166 167 168 169 170 171 172 173 174 175 176 177 178 179 180 181 182 183 184 185 186 187 188 189 190 191 192 193 194 195 196 197 198 199 200 201 202 203 204 205 206 207 208 209 210 211 212 213 214 215 216 217 218 219 220 221 222 223 224 225 226 227 228 229 230 231 232 233 234 235 236 237 238 239 240 241 242 243 244 245 246 247 248 249 250 251 252 253 254 255 256 257 258 259 260 261 262 263 264 265 266 267 268 269 270 271 272 273 274 275 276 277 278 279 280 281 282 283 284 285 286 287 288 289 290 291 292 293 294 295 296 297 298 299 300 301 302 303 304 305 306 307 308 309 310 311 312 313 314 315 316 317 318 319 320 321 322 323 324 325 326 327 328 329 330 331 332 333 334 335 336 337 338 339 340 341 342 343 344 345 346 347 348 349 350 351 352 353 354 355 356 357 358 359 360 361 362 363 364 365 366 367 368 369 370 371 372 373 374 375 376 377 378 379 380 381 382 383 384 385 386 387 388 389 390 391 392 393 394 395 396 397 398 399 400 401 402 403 404 405 406 407 408 409 410 411 412 413 414 415 416 417 418 419 420 421 422 423 424 425 426 427 428 429 430 431 432 433 434 435 436 437 438 439 440 441 442 443 444 445 446 447 448 449 450 451 452 453 454 455 456 457 458 459 460 461 462 463 464 465 466 467 468 469 470 471 472 473 474 475 476 477 478 479 480 481 482 483 484 485 486 487 488 489 490 491 492 493 494 495 496 497 498 499 500 501 502 503 504 505 506 507 508 509 510 511 512 513 514 515 516 517 518 519 520 521 522 523 524 525 526 527 528 529 530 531 532 533 534 535 536 537 538 539 540 541 542 543 544 545 546 547 548 549 550 551 552 553 554 555 556 557 558 559 560 561 562 563 564 565 566 567 568 569 570 571 572 573 574 575 576 577 578 579 580 581 582 583 584 585 586 587 588 589 590 591 592 593 594 595 596 597 598 599 600 601 602 603 604 605 606 607 608 609 610 611 612 613 614 615 616 617 618 619 620 621 622 623 624 625 626 627 628 629 630 631 632 633 634 635 636 637 638 639 640 641 642 643 644 645 646 647 648 649 650 651 652 653 654 655 656 657 658 659 660 661 662 663 664 665 666 667 668 669 670 671 672 673 674 675 676 677 678 679 680 681 682 683 684 685 686 687 688 689 690 691 692 693 694 695 696 697 698 699 700 701 702 703 704 705 706 707 708 709 710 711 712 713 714 715 716 717 718 719 720 721 722 723 724 725 726 727 728 729 730 731 732 733 734 735 736 737 738 739 740 741 742 743 744 745 746 747 748 749 750 751 752 753 754 755 756 757 758 759 760 761 762 763 764 765 766 767 768 769 770 771 772 773 774 775 776 777 778 779 780 781 782 783 784 785 786 787 788 789 790 791 792 793 794 795 796 797 798 799 800 801 802 803 804 805 806 807 808 809 810 811 812 813 814 815 816 817 818 819 820 821 822 823 824 825 826 827 828 829 830 831 832 833 834 835 836 837 838 839 840 841 842 843 844 845 846 847 848 849 850 851 852 853 854 855 856 857 858 859 860 861 862 863 
</DataArray>
<DataArray type='Int32' Name='offsets' format='ascii'>
4 8 12 16 20 24 28 32 36 40 44 48 52 56 60 64 68 72 76 80 84 88 92 96 100 104 108 112 116 120 124 128 132 136 140 144 148 152 156 160 164 168 172 176 180 184 188 192 196 200 204 208 212 216 220 224 228 232 236 240 244 248 252 256 260 264 268 272 276 280 284 288 292 296 300 304 308 312 316 320 324 328 332 336 340 344 348 352 356 360 364 368 372 376 380 384 388 392 396 400 404 408 412 416 420 424 428 432 436 440 444 448 452 456 460 464 468 472 476 480 484 488 492 496 500 504 508 512 516 520 524 528 532 536 540 544 548 552 556 560 564 568 572 576 580 584 588 592 596 600 604 608 612 616 620 624 628 632 636 640 644 648 652 656 660 664 668 672 676 680 684 688 692 696 700 704 708 712 716 720 724 728 732 736 740 744 748 752 756 760 764 768 772 776 780 784 788 792 796 800 804 808 812 816 820 824 828 832 836 840 844 848 852 856 860 864 
</DataArray>
</Polys>
</Piece>
</PolyData>
</VTKFile>