<?xml version='1.0'?>
<VTKFile type='UnstructuredGrid' version='0.1' byte_order='LittleEndian'><UnstructuredGrid>
<Piece NumberOfPoints='3000' NumberOfCells='0'>
<PointData Vectors='principal_stress_direction_1 principal_stress_direction_2 principal_stress_direction_3'>
<DataArray type='Float32' Name='principal_stress_direction_1' NumberOfComponents='3' format='ascii'>
-0.980114 0.198436 0.000000 -0.768212 0.640196 0.000000 0.381064 0.924549 0.000000 -0.489986 0.871730 0.000000 0.386114 -0.922451 0.000000 0.233736 -0.972300 0.000000 0.611080 -0.791569 0.000000 0.478179 -0.878262 0.000000 0.288799 -0.957390 0.000000 -0.207480 -0.978239 0.000000 0.537324 -0.843376 0.000000 0.979420 0.201832 0.000000 0.506071 0.862492 0.000000 -0.470835 0.882221 0.000000 -0.997982 0.063492 0.000000 0.999990 0.004561 0.000000 -0.781454 0.623963 0.000000 -0.566438 0.824104 0.000000 -0.194101 0.980982 0.000000 0.620890 0.783898 0.000000 0.698924 0.715196 0.000000 -0.901469 0.432843 0.000000 -0.979277 0.202526 0.000000 -0.617594 0.786497 0.000000 0.950682 -0.310167 0.000000 0.706636 -0.707577 0.000000 0.781494 -0.623912 0.000000 -0.013834 -0.999904 0.000000 -0.116883 -0.993146 0.000000 0.440342 -0.897830 0.000000 -0.050628 -0.998718 0.000000 0.030822 -0.999525 0.000000 -0.587103 0.809512 0.000000 -0.895438 -0.445186 0.000000 -0.620098 -0.784524 0.000000 0.866771 0.498707 0.000000 0.955037 -0.296486 0.000000 0.152943 -0.988235 0.000000 -0.664388 0.747388 0.000000 -0.888453 0.458968 0.000000 0.278178 0.960529 0.000000 -0.738315 0.674456 0.000000 -0.989165 0.146806 0.000000 0.725517 0.688204 0.000000 0.573132 0.819463 0.000000 -0.816471 0.577386 0.000000 0.223485 0.974707 0.000000 0.974725 0.223406 0.000000 0.884477 0.466583 0.000000 0.027177 0.999631 0.000000 -0.801094 0.598538 0.000000 -0.917686 -0.397306 0.000000 -0.999907 -0.013625 0.000000 0.581281 -0.813703 0.000000 0.952100 -0.305786 0.000000 -0.998148 -0.060837 0.000000 0.965989 -0.258581 0.000000 0.783729 -0.621103 0.000000 0.262068 -0.965049 0.000000 -0.820267 -0.571981 0.000000 0.362096 -0.932141 0.000000 0.225690 -0.974199 0.000000 0.323147 -0.946349 0.000000 -0.425598 -0.904912 0.000000 -0.030939 -0.999521 0.000000 -0.002669 -0.999996 0.000000 -0.829922 -0.557879 0.000000 0.680544 0.732708 0.000000 0.031105 -0.999516 0.000000 -0.752691 -0.658374 0.000000 -0.814638 -0.579970 0.000000 -0.938440 -0.345444 0.000000 -0.918151 -0.396230 0.000000 -0.921970 0.387261 0.000000 -0.774860 -0.632132 0.000000 0.867605 0.497255 0.000000 -0.871079 -0.491143 0.000000 -0.967479 0.252951 0.000000 0.927107 0.374796 0.000000 -0.320905 0.947111 0.000000 0.818866 0.573984 0.000000 -0.788637 0.614859 0.000000 0.951710 0.306998 0.000000 -0.163971 0.986465 0.000000 0.368931 0.929457 0.000000 -0.918155 0.396221 0.000000 0.852109 -0.523365 0.000000 0.999197 -0.040064 0.000000 0.504894 -0.863181 0.000000 -0.669621 0.742703 0.000000 -0.871611 -0.490198 0.000000 0.999248 -0.038764 0.000000 0.662732 -0.748857 0.000000 0.621177 -0.783671 0.000000 0.912187 -0.409773 0.000000 0.564270 -0.825590 0.000000 0.680054 -0.733162 0.000000 -0.944672 -0.328015 0.000000 0.670751 -0.741683 0.000000 0.685808 -0.727782 0.000000 0.385256 -0.922810 0.000000 0.085386 -0.996348 0.000000 0.258623 -0.965978 0.000000 -0.600825 -0.799381 0.000000 -0.142207 -0.989837 0.000000 0.173575 -0.984821 0.000000 -0.334835 -0.942277 0.000000 0.986428 0.164195 0.000000 0.966948 -0.254972 0.000000 -0.891030 -0.453945 0.000000 0.998968 -0.045424 0.000000 -0.933942 -0.357423 0.000000 -0.958325 -0.285679 0.000000 -0.933061 -0.359717 0.000000 -0.820006 -0.572355 0.000000 0.259696 -0.965690 0.000000 -0.853756 -0.520674 0.000000 -0.859194 -0.511649 0.000000 -0.902583 -0.430517 0.000000 -0.997833 -0.065794 0.000000 -0.108121 0.994138 0.000000 -0.488444 -0.872595 0.000000 -0.825761 0.564021 0.000000 -0.872525 -0.488570 0.000000 0.029527 0.999564 0.000000 -0.315512 0.948921 0.000000 0.688811 0.724941 0.000000 -0.870832 0.491580 0.000000 -0.550861 0.834597 0.000000 -0.699024 0.715098 0.000000 0.982072 0.188506 0.000000 -0.997418 0.071811 0.000000 -0.716862 0.697215 0.000000 0.829178 -0.558985 0.000000 -0.456596 -0.889674 0.000000 0.999613 -0.027822 0.000000 -0.999201 -0.039973 0.000000 -0.966472 -0.256773 0.000000 0.944965 0.327171 0.000000 0.999580 -0.028976 0.000000 0.922792 -0.385298 0.000000 0.620203 -0.784441 0.000000 0.998765 -0.049692 0.000000 0.671517 -0.740989 0.000000 0.904664 -0.426125 0.000000 0.990077 -0.140529 0.000000 0.192748 0.981248 0.000000 0.177067 -0.984199 0.000000 0.061037 -0.998136 0.000000 0.709099 -0.705109 0.000000 0.589662 -0.807650 0.000000 0.183401 -0.983038 0.000000 -0.355947 -0.934506 0.000000 0.151885 -0.988398 0.000000 -0.585607 -0.810595 0.000000 -0.316230 -0.948683 0.000000 0.082581 -0.996584 0.000000 -0.470984 -0.882142 0.000000 0.025110 -0.999685 0.000000 -0.055249 -0.998473 0.000000 0.644225 -0.764836 0.000000 0.929670 0.368392 0.000000 -0.722979 -0.690870 0.000000 -0.937346 -0.348401 0.000000 -0.849895 -0.526952 0.000000 -0.888045 -0.459757 0.000000 0.992766 -0.120064 0.000000 -0.018794 -0.999823 0.000000 0.965381 -0.260843 0.000000 -0.839798 -0.542899 0.000000 -0.702027 -0.712150 0.000000 -0.786132 -0.618058 0.000000 -0.664352 -0.747420 0.000000 0.645493 0.763767 0.000000 0.996987 -0.077565 0.000000 -0.495503 0.868606 0.000000 0.840219 0.542247 0.000000 0.777185 0.629272 0.000000 -0.986329 0.164787 0.000000 0.930587 0.366071 0.000000 -0.978465 0.206413 0.000000 0.974360 -0.224996 0.000000 -0.749354 0.662170 0.000000 -0.951192 -0.308598 0.000000 0.936946 0.349473 0.000000 -0.997824 -0.065929 0.000000 -0.536122 -0.844140 0.000000 0.769815 -0.638267 0.000000 0.574750 -0.818329 0.000000 0.972759 -0.231818 0.000000 0.995193 -0.097936 0.000000 0.824099 -0.566445 0.000000 0.970834 -0.239753 0.000000 0.996018 -0.089152 0.000000 0.999631 -0.027152 0.000000 0.835334 -0.549743 0.000000 0.707594 -0.706619 0.000000 0.344263 -0.938873 0.000000 0.624368 -0.781131 0.000000 -0.987288 -0.158938 0.000000 0.811856 -0.583858 0.000000 -0.996102 -0.088203 0.000000 0.101125 -0.994874 0.000000 0.628562 -0.777759 0.000000 0.512983 -0.858399 0.000000 -0.387302 -0.921953 0.000000 0.550302 -0.834966 0.000000 -0.019711 -0.999806 0.000000 -0.130361 -0.991467 0.000000 0.468229 -0.883607 0.000000 0.199064 -0.979986 0.000000 0.347866 -0.937544 0.000000 -0.694411 -0.719579 0.000000 0.107236 -0.994234 0.000000 -0.781082 -0.624428 0.000000 -0.561837 -0.827248 0.000000 -0.703205 -0.710987 0.000000 -0.427477 -0.904026 0.000000 0.977142 -0.212589 0.000000 0.457039 0.889447 0.000000 -0.525099 -0.851041 0.000000 -0.871057 -0.491182 0.000000 0.536529 0.843882 0.000000 -0.423933 -0.905694 0.000000 0.999998 -0.002050 0.000000 -0.224888 -0.974385 0.000000 -0.966816 -0.255475 0.000000 -0.410908 0.911677 0.000000 -0.537481 -0.843276 0.000000 0.997989 0.063382 0.000000 0.765102 0.643910 0.000000 0.244252 -0.969712 0.000000 0.669632 0.742693 0.000000 -0.937929 0.346829 0.000000 -0.902101 0.431525 0.000000 0.993602 0.112941 0.000000 -0.915109 0.403207 0.000000 -0.255977 0.966683 0.000000 -0.721366 0.692554 0.000000 0.583027 -0.812453 0.000000 -0.909775 0.415102 0.000000 0.703466 0.710729 0.000000 -0.876499 0.481403 0.000000 -0.760261 0.649618 0.000000 0.560673 0.828038 0.000000 0.999965 -0.008317 0.000000 0.556987 -0.830521 0.000000 0.572065 0.820208 0.000000 0.815100 -0.579320 0.000000 0.426452 -0.904510 0.000000 0.916836 -0.399265 0.000000 0.644544 -0.764567 0.000000 -0.866188 -0.499718 0.000000 0.957693 -0.287793 0.000000 0.999916 -0.012983 0.000000 0.797058 -0.603902 0.000000 0.996530 -0.083231 0.000000 0.728965 -0.684551 0.000000 0.964745 -0.263185 0.000000 0.060146 -0.998190 0.000000 0.964633 -0.263597 0.000000 0.596995 -0.802245 0.000000 0.541939 -0.840418 0.000000 0.031302 -0.999510 0.000000 0.393138 -0.919480 0.000000 0.241791 -0.970328 0.000000 0.982037 -0.188688 0.000000 -0.416134 -0.909303 0.000000 0.475465 -0.879734 0.000000 0.190842 -0.981621 0.000000 0.875839 -0.482603 0.000000 -0.156084 -0.987744 0.000000 -0.644362 -0.764721 0.000000 0.932131 -0.362122 0.000000 0.513558 -0.858055 0.000000 -0.842067 0.539373 0.000000 -0.677870 -0.735181 0.000000 -0.613387 -0.789782 0.000000 -0.276174 -0.961108 0.000000 -0.987010 -0.160659 0.000000 -0.133802 -0.991008 0.000000 -0.739149 0.673542 0.000000 0.036983 -0.999316 0.000000 -0.512658 -0.858593 0.000000 -0.764315 -0.644843 0.000000 -0.732353 -0.680926 0.000000 -0.224087 -0.974569 0.000000 -0.902229 0.431257 0.000000 -0.320319 -0.947310 0.000000 -0.712242 0.701934 0.000000 -0.176780 -0.984250 0.000000 -0.956189 -0.292749 0.000000 -0.811562 0.584266 0.000000 -0.301654 0.953418 0.000000 -0.023014 -0.999735 0.000000 -0.970226 0.242201 0.000000 -0.455651 0.890158 0.000000 0.756595 -0.653884 0.000000 -0.944159 0.329491 0.000000 0.518816 0.854886 0.000000 -0.540796 0.841154 0.000000 -0.456860 0.889539 0.000000 0.723192 -0.690647 0.000000 0.708313 0.705898 0.000000 0.827013 0.562183 0.000000 -0.822593 0.568630 0.000000 0.525451 -0.850824 0.000000 0.922631 -0.385684 0.000000 0.958805 0.284066 0.000000 -0.219369 -0.975642 0.000000 0.869017 -0.494783 0.000000 -0.905752 0.423809 0.000000 0.893815 -0.448435 0.000000 0.666499 -0.745506 0.000000 -0.999486 -0.032058 0.000000 -0.140413 0.990093 0.000000 0.004972 -0.999988 0.000000 0.826998 -0.562204 0.000000 0.859694 -0.510809 0.000000 0.059246 -0.998243 0.000000 0.705236 -0.708973 0.000000 0.724497 -0.689278 0.000000 -0.998224 -0.059575 0.000000 0.506506 -0.862236 0.000000 0.611715 -0.791078 0.000000 0.719010 -0.695000 0.000000 0.160754 -0.986995 0.000000 0.386549 -0.922269 0.000000 0.373188 -0.927756 0.000000 0.167841 -0.985814 0.000000 -0.121208 -0.992627 0.000000 0.565296 -0.824888 0.000000 0.138649 -0.990342 0.000000 0.124498 -0.992220 0.000000 0.009243 -0.999957 0.000000 -0.719360 -0.694638 0.000000 -0.299872 0.953979 0.000000 -0.037087 -0.999312 0.000000 -0.581338 -0.813662 0.000000 -0.351586 -0.936156 0.000000 -0.450191 -0.892932 0.000000 -0.927960 -0.372679 0.000000 -0.527959 -0.849270 0.000000 -0.213892 -0.976857 0.000000 -0.748223 0.663448 0.000000 -0.643777 -0.765213 0.000000 -0.875570 -0.483091 0.000000 -0.985148 -0.171706 0.000000 -0.404757 -0.914424 0.000000 -0.576436 -0.817142 0.000000 0.995687 -0.092781 0.000000 -0.127762 -0.991805 0.000000 -0.936622 -0.350340 0.000000 0.455312 0.890332 0.000000 -0.504078 -0.863658 0.000000 0.438377 0.898791 0.000000 -0.949181 -0.314731 0.000000 -0.936210 -0.351442 0.000000 0.451262 0.892392 0.000000 -0.997283 0.073659 0.000000 -0.336372 0.941729 0.000000 0.141141 0.989989 0.000000 -0.699644 0.714492 0.000000 -0.662151 0.749371 0.000000 -0.678848 0.734278 0.000000 0.604157 0.796865 0.000000 -0.367154 0.930160 0.000000 -0.491248 0.871020 0.000000 0.385477 0.922718 0.000000 0.462133 0.886810 0.000000 -0.211067 0.977472 0.000000 -0.908629 0.417605 0.000000 0.730632 0.682771 0.000000 0.419283 0.907856 0.000000 -0.984016 -0.178079 0.000000 0.998970 0.045380 0.000000 0.683424 -0.730022 0.000000 -0.741369 0.671098 0.000000 0.666467 0.745534 0.000000 0.757613 0.652704 0.000000 -0.966266 -0.257546 0.000000 0.879965 -0.475039 0.000000 -0.785070 0.619407 0.000000 -0.996583 0.082601 0.000000 -0.064970 -0.997887 0.000000 0.946867 0.321625 0.000000 -0.898193 -0.439601 0.000000 -0.811903 0.583792 0.000000 0.624177 -0.781283 0.000000 0.866286 -0.499548 0.000000 -0.332120 -0.943237 0.000000 0.693715 -0.720250 0.000000 0.088624 -0.996065 0.000000 -0.727411 -0.686202 0.000000 0.478160 0.878273 0.000000 0.064756 -0.997901 0.000000 0.537051 -0.843550 0.000000 0.370949 -0.928653 0.000000 0.171227 -0.985232 0.000000 0.183972 -0.982932 0.000000 0.032272 -0.999479 0.000000 0.087209 -0.996190 0.000000 0.167984 -0.985790 0.000000 0.677325 -0.735684 0.000000 0.360811 -0.932639 0.000000 0.708053 -0.706159 0.000000 -0.755833 -0.654764 0.000000 -0.943839 -0.330406 0.000000 -0.870832 -0.491580 0.000000 0.128737 -0.991679 0.000000 0.632022 -0.774950 0.000000 0.074707 -0.997206 0.000000 -0.870017 -0.493021 0.000000 -0.911268 -0.411815 0.000000 -0.113599 -0.993527 0.000000 -0.977219 -0.212234 0.000000 -0.413362 -0.910567 0.000000 0.532700 0.846304 0.000000 -0.865565 -0.500796 0.000000 -0.888006 -0.459832 0.000000 -0.999843 -0.017711 0.000000 0.650705 -0.759330 0.000000 0.737512 -0.675334 0.000000 0.312804 0.949818 0.000000 -0.975513 0.219941 0.000000 0.563531 0.826095 0.000000 0.880010 -0.474955 0.000000 -0.931117 0.364721 0.000000 0.954619 0.297831 0.000000 0.517976 0.855395 0.000000 -0.352139 0.935948 0.000000 -0.913051 0.407845 0.000000 0.749220 -0.662321 0.000000 0.302149 0.953261 0.000000 0.567573 0.823323 0.000000 0.451972 0.892032 0.000000 -0.488810 0.872390 0.000000 -0.775454 0.631404 0.000000 0.228135 0.973630 0.000000 -0.705647 0.708563 0.000000 -0.568105 0.822956 0.000000 0.201848 0.979417 0.000000 0.999546 0.030133 0.000000 0.706411 0.707802 0.000000 0.289827 0.957079 0.000000 -0.953051 0.302811 0.000000 -0.455557 0.890207 0.000000 -0.824551 0.565788 0.000000 0.570891 0.821026 0.000000 0.682577 0.730814 0.000000 -0.731131 0.682237 0.000000 -0.193643 0.981072 0.000000 0.928073 0.372398 0.000000 0.929662 0.368413 0.000000 -0.946783 0.321874 0.000000 -0.925685 0.378296 0.000000 -0.131305 -0.991342 0.000000 -0.216421 -0.976300 0.000000 0.872751 -0.488166 0.000000 -0.444035 -0.896010 0.000000 0.080823 -0.996728 0.000000 0.586003 -0.810309 0.000000 -0.813119 0.582097 0.000000 0.046392 -0.998923 0.000000 0.051788 -0.998658 0.000000 0.066975 -0.997755 0.000000 0.352229 -0.935914 0.000000 0.519780 -0.854300 0.000000 0.251468 -0.967866 0.000000 -0.178493 -0.983941 0.000000 0.422354 -0.906431 0.000000 -0.019824 -0.999803 0.000000 -0.048423 -0.998827 0.000000 0.245929 -0.969288 0.000000 -0.997296 -0.073487 0.000000 -0.683295 -0.730142 0.000000 -0.125860 -0.992048 0.000000 -0.085451 -0.996342 0.000000 -0.929518 -0.368776 0.000000 -0.915908 -0.401388 0.000000 -0.653954 -0.756534 0.000000 -0.614084 -0.789241 0.000000 -0.878314 -0.478085 0.000000 -0.870091 -0.492891 0.000000 -0.999949 -0.010116 0.000000 -0.918164 -0.396202 0.000000 -0.986451 -0.164056 0.000000 -0.934413 -0.356191 0.000000 0.999984 -0.005643 0.000000 0.999996 0.002854 0.000000 0.477383 0.878695 0.000000 0.865675 -0.500606 0.000000 -0.951850 0.306565 0.000000 -0.761250 -0.648458 0.000000 -0.808706 0.588213 0.000000 0.404293 0.914630 0.000000 0.992426 0.122845 0.000000 -0.711138 0.703052 0.000000 0.459244 0.888310 0.000000 -0.998945 0.045914 0.000000 -0.650319 0.759661 0.000000 -0.524967 0.851123 0.000000 0.473937 0.880559 0.000000 0.930635 0.365950 0.000000 -0.669338 0.742958 0.000000 0.294910 0.955525 0.000000 0.668150 0.744027 0.000000 -0.124709 0.992193 0.000000 0.875324 0.483537 0.000000 -0.933538 0.358477 0.000000 -0.725411 0.688316 0.000000 0.347473 0.937690 0.000000 -0.244420 0.969669 0.000000 0.779517 0.626381 0.000000 -0.872989 0.487739 0.000000 0.918580 0.395235 0.000000 -0.110834 0.993839 0.000000 -0.528271 0.849076 0.000000 -0.524421 0.851459 0.000000 0.754248 0.656590 0.000000 0.998074 -0.062034 0.000000 0.855752 -0.517386 0.000000 0.744806 0.667282 0.000000 -0.736962 0.675934 0.000000 0.747554 0.664201 0.000000 -0.582721 0.812673 0.000000 -0.534548 0.845138 0.000000 -0.769389 -0.638781 0.000000 -0.769469 -0.638684 0.000000 -0.620212 -0.784434 0.000000 -0.944464 0.328614 0.000000 0.359531 -0.933133 0.000000 0.456197 0.889879 0.000000 -0.924635 -0.380854 0.000000 -0.407985 -0.912988 0.000000 0.505633 -0.862749 0.000000 -0.035195 -0.999380 0.000000 0.162493 -0.986710 0.000000 0.089243 -0.996010 0.000000 0.171303 -0.985218 0.000000 0.106292 -0.994335 0.000000 0.109096 -0.994031 0.000000 -0.092969 -0.995669 0.000000 0.526349 -0.850269 0.000000 -0.055569 -0.998455 0.000000 0.118480 -0.992956 0.000000 -0.578571 -0.815632 0.000000 -0.096337 -0.995349 0.000000 0.394867 -0.918738 0.000000 0.210905 -0.977507 0.000000 -0.244504 -0.969648 0.000000 -0.946092 -0.323897 0.000000 -0.414086 -0.910238 0.000000 -0.240997 -0.970526 0.000000 -0.798717 -0.601707 0.000000 0.874141 -0.485672 0.000000 -0.940445 -0.339945 0.000000 -0.627753 -0.778413 0.000000 0.998222 -0.059599 0.000000 -0.842613 -0.538520 0.000000 -0.667715 -0.744417 0.000000 -0.800665 -0.599112 0.000000 0.486095 -0.873906 0.000000 -0.973557 -0.228445 0.000000 -0.803704 -0.595029 0.000000 0.642070 -0.766646 0.000000 -0.690039 0.723772 0.000000 0.405750 -0.913984 0.000000 0.671324 0.741164 0.000000 -0.999366 0.035611 0.000000 -0.998497 0.054800 0.000000 -0.248373 -0.968664 0.000000 -0.885357 0.464912 0.000000 -0.135713 0.990748 0.000000 -0.037412 -0.999300 0.000000 0.599511 -0.800367 0.000000 0.346554 0.938030 0.000000 0.939869 0.341535 0.000000 0.991179 -0.132528 0.000000 0.329488 -0.944160 0.000000 0.833829 0.552023 0.000000 0.969356 0.245662 0.000000 0.706281 0.707932 0.000000 -0.830161 0.557524 0.000000 0.995355 0.096272 0.000000 -0.677846 0.735204 0.000000 0.992966 0.118403 0.000000 -0.774181 0.632965 0.000000 0.504058 -0.863670 0.000000 0.942807 -0.333340 0.000000 0.996206 0.087027 0.000000 -0.967939 0.251185 0.000000 -0.782921 0.622121 0.000000 -0.384168 0.923263 0.000000 -0.994803 -0.101815 0.000000 0.545986 -0.837794 0.000000 -0.999901 -0.014057 0.000000 0.992782 -0.119931 0.000000 0.723735 0.690078 0.000000 -0.951279 0.308332 0.000000 0.666228 0.745748 0.000000 0.406779 0.913526 0.000000 -0.574055 0.818816 0.000000 0.641383 0.767221 0.000000 0.202068 0.979371 0.000000 0.776857 0.629678 0.000000 -0.228914 0.973447 0.000000 -0.070940 0.997481 0.000000 0.741220 -0.671262 0.000000 -0.790511 0.612447 0.000000 0.496166 -0.868228 0.000000 0.365168 -0.930942 0.000000 0.321894 -0.946776 0.000000 0.606508 -0.795077 0.000000 0.369912 -0.929067 0.000000 0.659967 -0.751294 0.000000 -0.682334 -0.731040 0.000000 0.505297 -0.862946 0.000000 -0.193968 -0.981008 0.000000 0.362500 -0.931984 0.000000 -0.178376 -0.983962 0.000000 0.817095 -0.576503 0.000000 0.216814 -0.976213 0.000000 -0.268864 -0.963178 0.000000 -0.652112 -0.758122 0.000000 0.183320 -0.983053 0.000000 -0.695557 -0.718471 0.000000 -0.875323 -0.483539 0.000000 -0.868041 -0.496493 0.000000 0.990538 -0.137239 0.000000 -0.545205 -0.838303 0.000000 -0.797368 -0.603493 0.000000 -0.996034 0.088976 0.000000 -0.860454 -0.509528 0.000000 -0.646524 -0.762894 0.000000 -0.794717 -0.606980 0.000000 -0.823465 -0.567367 0.000000 -0.887292 -0.461207 0.000000 -0.809645 -0.586920 0.000000 0.992728 -0.120381 0.000000 -0.999377 -0.035287 0.000000 -0.615322 -0.788276 0.000000 -0.335462 -0.942054 0.000000 0.511131 0.859503 0.000000 -0.071743 0.997423 0.000000 -0.026458 -0.999650 0.000000 -0.451675 0.892183 0.000000 -0.997157 0.075356 0.000000 0.326604 0.945161 0.000000 -0.834970 -0.550296 0.000000 -0.390720 0.920510 0.000000 0.367799 0.929905 0.000000 -0.409293 -0.912403 0.000000 0.997649 0.068524 0.000000 -0.812327 0.583203 0.000000 -0.994604 0.103743 0.000000 0.140342 0.990103 0.000000 -0.224770 0.974412 0.000000 0.785953 0.618287 0.000000 -0.767497 0.641053 0.000000 0.209781 0.977748 0.000000 -0.034561 0.999403 0.000000 -0.924658 -0.380798 0.000000 0.940940 -0.338574 0.000000 0.624904 0.780702 0.000000 -0.774669 0.632367 0.000000 0.413396 0.910551 0.000000 0.991740 0.128265 0.000000 0.710372 -0.703827 0.000000 -0.086735 0.996231 0.000000 0.951887 -0.306448 0.000000 0.941599 -0.336736 0.000000 -0.200593 0.979675 0.000000 -0.308827 0.951118 0.000000 -0.980710 -0.195468 0.000000 -0.803557 0.595228 0.000000 -0.876360 0.481656 0.000000 -0.485234 0.874385 0.000000 0.614653 0.788798 0.000000 0.748050 0.663642 0.000000 -0.565120 0.825009 0.000000 -0.669635 -0.742691 0.000000 -0.965689 -0.259702 0.000000 -0.769293 0.638896 0.000000 0.949642 -0.313337 0.000000 0.785630 -0.618697 0.000000 0.604766 0.796403 0.000000 0.157275 -0.987555 0.000000 0.040984 -0.999160 0.000000 0.385081 -0.922883 0.000000 0.066943 -0.997757 0.000000 0.167085 -0.985942 0.000000 0.907732 0.419550 0.000000 0.108437 -0.994103 0.000000 -0.178079 -0.984016 0.000000 0.523736 -0.851880 0.000000 -0.457802 -0.889054 0.000000 0.576874 -0.816833 0.000000 -0.886394 -0.462932 0.000000 -0.666094 -0.745867 0.000000 -0.088630 -0.996065 0.000000 -0.240193 -0.970725 0.000000 0.409057 -0.912509 0.000000 -0.699064 -0.715059 0.000000 -0.930768 -0.365612 0.000000 -0.920546 -0.390635 0.000000 -0.935678 -0.352854 0.000000 -0.964898 -0.262626 0.000000 0.883082 -0.469218 0.000000 0.925560 -0.378601 0.000000 -0.841500 -0.540258 0.000000 -0.862364 -0.506289 0.000000 -0.992491 -0.122319 0.000000 -0.999810 0.019497 0.000000 -0.873182 -0.487394 0.000000 -0.643437 -0.765499 0.000000 -0.876377 -0.481625 0.000000 -0.983954 -0.178424 0.000000 -0.078698 0.996899 0.000000 -0.343535 -0.939140 0.000000 -0.812168 -0.583423 0.000000 -0.425096 0.905148 0.000000 -0.775361 0.631519 0.000000 0.785765 0.618525 0.000000 -0.602445 -0.798161 0.000000 0.621447 0.783456 0.000000 -0.193594 -0.981082 0.000000 -0.555186 -0.831726 0.000000 -0.660267 0.751031 0.000000 0.677791 0.735255 0.000000 0.833153 0.553043 0.000000 -0.887737 0.460352 0.000000 0.302817 0.953049 0.000000 0.551445 0.834211 0.000000 -0.714589 0.699545 0.000000 -0.526465 0.850197 0.000000 0.837608 0.546272 0.000000 0.464741 0.885446 0.000000 0.987783 0.155836 0.000000 -0.896711 0.442617 0.000000 -0.438237 0.898860 0.000000 0.817884 0.575384 0.000000 0.161186 0.986924 0.000000 -0.670158 0.742218 0.000000 -0.867266 0.497846 0.000000 0.604570 0.796552 0.000000 0.560687 0.828028 0.000000 -0.705691 -0.708520 0.000000 -0.570498 0.821299 0.000000 0.673029 -0.739616 0.000000 0.970000 -0.243104 0.000000 0.459561 -0.888146 0.000000 -0.465698 0.884944 0.000000 -0.911953 0.410294 0.000000 0.644803 0.764349 0.000000 0.897732 0.440543 0.000000 0.736698 -0.676222 0.000000 -0.371874 0.928283 0.000000 0.940135 0.340801 0.000000 0.954548 0.298056 0.000000 -0.302949 0.953007 0.000000 -0.856016 0.516949 0.000000 0.837290 0.546759 0.000000 0.413005 0.910729 0.000000 -0.791812 0.610765 0.000000 0.901926 -0.431891 0.000000 0.385770 0.922595 0.000000 0.932232 0.361861 0.000000 0.897392 0.441234 0.000000 0.437627 -0.899156 0.000000 -0.944876 0.327430 0.000000 -0.819091 0.573664 0.000000 0.316671 -0.948535 0.000000 0.206019 0.978548 0.000000 0.291116 -0.956688 0.000000 0.061830 -0.998087 0.000000 0.441898 -0.897065 0.000000 -0.520662 -0.853763 0.000000 0.944158 -0.329494 0.000000 0.537238 0.843431 0.000000 -0.862549 -0.505973 0.000000 -0.927981 0.372627 0.000000 -0.881126 -0.472881 0.000000 -0.706947 -0.707266 0.000000 -0.706269 -0.707944 0.000000 -0.658824 -0.752297 0.000000 -0.515359 -0.856975 0.000000 -0.836995 -0.547211 0.000000 -0.672281 0.740296 0.000000 0.999981 -0.006200 0.000000 -0.995099 -0.098879 0.000000 -0.780299 -0.625406 0.000000 -0.324869 -0.945759 0.000000 -0.968359 -0.249562 0.000000 0.989985 -0.141169 0.000000 -0.888731 -0.458429 0.000000 -0.897886 -0.440228 0.000000 0.836958 -0.547267 0.000000 -0.937037 -0.349229 0.000000 -0.844998 0.534770 0.000000 0.923884 -0.382672 0.000000 0.604607 -0.796524 0.000000 -0.134049 0.990975 0.000000 0.978399 0.206727 0.000000 -0.667562 0.744554 0.000000 -0.450498 -0.892777 0.000000 0.174118 0.984725 0.000000 -0.978894 0.204367 0.000000 -0.502378 0.864648 0.000000 0.641888 0.766799 0.000000 0.128527 0.991706 0.000000 0.789345 0.613950 0.000000 -0.491371 0.870950 0.000000 0.412588 0.910918 0.000000 -0.999877 0.015666 0.000000 -0.099328 0.995055 0.000000 -0.995832 0.091203 0.000000 -0.470847 0.882215 0.000000 -0.822363 0.568964 0.000000 0.735873 0.677120 0.000000 -0.575677 -0.817678 0.000000 -0.998561 0.053635 0.000000 0.967349 0.253449 0.000000 0.702383 0.711799 0.000000 -0.780520 0.625131 0.000000 0.996600 0.082392 0.000000 0.611286 0.791410 0.000000 -0.770913 0.636941 0.000000 -0.039464 -0.999221 0.000000 -0.417621 -0.908621 0.000000 0.061333 -0.998117 0.000000 -0.951164 -0.308687 0.000000 0.281260 0.959632 0.000000 -0.968739 0.248082 0.000000 -0.964428 -0.264344 0.000000 -0.935457 -0.353440 0.000000 0.124029 0.992279 0.000000 0.663414 -0.748252 0.000000 0.982290 -0.187366 0.000000 -0.979663 -0.200648 0.000000 0.904543 -0.426382 0.000000 0.778763 0.627318 0.000000 0.936191 -0.351491 0.000000 -0.986135 -0.165944 0.000000 0.832757 -0.553639 0.000000 -0.028522 0.999593 0.000000 -0.099031 0.995084 0.000000 0.708374 0.705837 0.000000 0.890034 0.455894 0.000000 0.722817 -0.691039 0.000000 0.910485 0.413542 0.000000 0.813358 -0.581763 0.000000 -0.599916 -0.800063 0.000000 -0.321057 0.947060 0.000000 0.797122 0.603819 0.000000 0.326396 -0.945233 0.000000 0.885346 -0.464932 0.000000 0.724648 -0.689119 0.000000 -0.716334 0.697758 0.000000 0.891698 -0.452631 0.000000 0.697994 -0.716104 0.000000 0.121313 0.992614 0.000000 0.521346 -0.853345 0.000000 -0.841448 0.540338 0.000000 -0.752752 -0.658305 0.000000 -0.000536 -1.000000 0.000000 0.732756 0.680492 0.000000 -0.416546 -0.909115 0.000000 0.576627 -0.817007 0.000000 -0.928972 -0.370151 0.000000 -0.829304 -0.558798 0.000000 0.166416 0.986056 0.000000 0.711272 -0.702917 0.000000 -0.894793 0.446482 0.000000 -0.921119 0.389281 0.000000 -0.275867 -0.961196 0.000000 -0.625058 0.780579 0.000000 0.364041 0.931383 0.000000 0.658534 0.752551 0.000000 0.916459 -0.400128 0.000000 -0.559184 0.829043 0.000000 0.995031 0.099561 0.000000 0.152530 0.988299 0.000000 0.081580 -0.996667 0.000000 0.489245 0.872147 0.000000 -0.800163 0.599782 0.000000 0.552968 0.833202 0.000000 -0.618627 0.785684 0.000000 0.017139 0.999853 0.000000 0.261197 0.965286 0.000000 0.085141 0.996369 0.000000 -0.158020 0.987436 0.000000 -0.603527 0.797343 0.000000 0.254572 0.967054 0.000000 0.166353 0.986066 0.000000 0.757017 0.653395 0.000000 0.090467 0.995899 0.000000 -0.537852 0.843039 0.000000 -0.984296 0.176528 0.000000 -0.608637 0.793449 0.000000 0.820899 0.571074 0.000000 0.529636 0.848225 0.000000 -0.762314 0.647207 0.000000 -0.052511 -0.998620 0.000000 -0.800955 0.598724 0.000000 -0.684532 -0.728983 0.000000 0.024409 0.999702 0.000000 -0.862831 0.505493 0.000000 -0.427052 0.904227 0.000000 0.238208 -0.971214 0.000000 0.558273 0.829657 0.000000 0.659518 0.751689 0.000000 0.397410 -0.917641 0.000000 0.071770 0.997421 0.000000 -0.323847 0.946110 0.000000 -0.999330 0.036611 0.000000 0.256167 0.966633 0.000000 0.892982 -0.450093 0.000000 0.567220 -0.823566 0.000000 0.752981 0.658042 0.000000 -0.981887 -0.189465 0.000000 -0.417054 0.908882 0.000000 -0.746194 -0.665728 0.000000 -0.842654 0.538455 0.000000 0.859594 0.510978 0.000000 -0.969738 0.244150 0.000000 0.799029 0.601293 0.000000 -0.242041 0.970266 0.000000 -0.213304 0.976986 0.000000 0.913611 -0.406588 0.000000 0.850821 0.525455 0.000000 0.302726 0.953078 0.000000 -0.856620 0.515949 0.000000 0.904590 -0.426283 0.000000 0.878585 0.477585 0.000000 0.614328 0.789051 0.000000 0.941967 -0.335706 0.000000 0.099601 0.995027 0.000000 -0.893384 0.449294 0.000000 -0.913897 0.405946 0.000000 0.892466 0.451114 0.000000 -0.465123 0.885246 0.000000 -0.677523 0.735502 0.000000 -0.431222 0.902246 0.000000 -0.930175 -0.367118 0.000000 -0.996744 -0.080625 0.000000 -0.995778 -0.091799 0.000000 0.864311 -0.502958 0.000000 0.823678 -0.567058 0.000000 0.140576 -0.990070 0.000000 -0.859205 -0.511632 0.000000 -0.760466 -0.649377 0.000000 -0.970516 -0.241036 0.000000 0.999995 -0.003209 0.000000 0.853176 -0.521623 0.000000 -0.438307 0.898826 0.000000 -0.996090 -0.088345 0.000000 -0.785770 -0.618519 0.000000 0.992049 -0.125853 0.000000 0.737020 -0.675871 0.000000 -0.990138 -0.140093 0.000000 0.570707 -0.821154 0.000000 -0.152123 0.988362 0.000000 0.818416 -0.574626 0.000000 -0.424675 0.905346 0.000000 0.816073 0.577949 0.000000 0.501701 -0.865041 0.000000 0.209748 0.977756 0.000000 -0.289681 0.957123 0.000000 0.908690 0.417472 0.000000 -0.344104 0.938932 0.000000 -0.596253 0.802797 0.000000 0.233160 0.972438 0.000000 -0.751289 -0.659973 0.000000 -0.255861 0.966714 0.000000 -0.973009 0.230767 0.000000 -0.052473 -0.998622 0.000000 0.385804 0.922581 0.000000 0.491415 0.870925 0.000000 -0.605552 0.795806 0.000000 0.988582 0.150683 0.000000 -0.734080 0.679063 0.000000 0.986363 0.164582 0.000000 -0.602978 0.797758 0.000000 0.879719 0.475494 0.000000 0.516385 0.856357 0.000000 -0.767305 0.641282 0.000000 -0.003661 -0.999993 0.000000 -0.238121 -0.971235 0.000000 -0.785956 0.618283 0.000000 -0.638942 0.769255 0.000000 0.806352 0.591435 0.000000 0.915824 0.401580 0.000000 -0.423256 0.906010 0.000000 -0.653001 -0.757357 0.000000 0.647390 -0.762159 0.000000 0.002152 0.999998 0.000000 0.816968 0.576683 0.000000 -0.763367 -0.645965 0.000000 -0.857530 0.514434 0.000000 0.039397 -0.999224 0.000000 -0.999989 -0.004795 0.000000 0.546557 -0.837422 0.000000 -0.993684 -0.112218 0.000000 -0.309039 -0.951049 0.000000 -0.992424 -0.122856 0.000000 -0.318546 -0.947907 0.000000 -0.033184 0.999449 0.000000 -0.035681 0.999363 0.000000 0.561377 0.827560 0.000000 -0.999998 0.001842 0.000000 0.883683 -0.468086 0.000000 0.964160 0.265322 0.000000 -0.584645 0.811289 0.000000 0.436165 0.899867 0.000000 0.798617 0.601840 0.000000 -0.547486 0.836815 0.000000 -0.943756 0.330644 0.000000 -0.993421 -0.114516 0.000000 -0.831902 -0.554922 0.000000 -0.820473 -0.571686 0.000000 -0.686155 0.727455 0.000000 0.042046 0.999116 0.000000 0.753285 -0.657694 0.000000 -0.395744 -0.918361 0.000000 0.758403 -0.651786 0.000000 0.922951 -0.384919 0.000000 0.339952 -0.940443 0.000000 -0.884204 -0.467101 0.000000 -0.749968 -0.661474 0.000000 0.218669 -0.975799 0.000000 0.985859 -0.167578 0.000000 -0.328105 -0.944641 0.000000 -0.814763 -0.579795 0.000000 -0.935871 -0.352342 0.000000 -0.829884 0.557936 0.000000 -0.996795 -0.079995 0.000000 0.663431 -0.748237 0.000000 0.659610 -0.751608 0.000000 0.696957 -0.717113 0.000000 0.299761 -0.954014 0.000000 -0.322749 -0.946485 0.000000 0.422651 -0.906293 0.000000 0.243089 0.970004 0.000000 0.718849 -0.695166 0.000000 0.714992 -0.699132 0.000000 -0.505755 0.862677 0.000000 -0.742888 -0.669415 0.000000 -0.913204 -0.407502 0.000000 0.579119 0.815243 0.000000 0.956808 0.290722 0.000000 -0.659115 0.752042 0.000000 0.561734 0.827318 0.000000 -0.968098 0.250571 0.000000 -0.711869 0.702312 0.000000 0.212625 -0.97