<?xml version='1.0'?>
<VTKFile type='PolyData' version='0.1' byte_order='LittleEndian'><PolyData>
<Piece NumberOfPoints='9000' NumberOfVerts='0' NumberOfLines='0' NumberOfStrips='0' NumberOfPolys='3000'>
<Points>
<DataArray type='Float32' NumberOfComponents='3' format='ascii'>
10.699322 48.854580 0.000000 7.673005 49.424425 0.000000 8.843294 47.324411 0.000000 4.611657 49.803741 0.000000 6.494095 47.056009 0.000000 7.667509 49.422876 0.000000 8.845706 47.312385 0.000000 7.666402 49.407267 0.000000 6.502151 47.035846 0.000000 6.503187 47.039791 0.000000 4.618922 49.786301 0.000000 4.545164 47.210295 0.000000 1.642028 49.967297 0.000000 2.532453 47.091064 0.000000 4.614347 49.787560 0.000000 4.545318 47.207558 0.000000 4.612599 49.783749 0.000000 2.529782 47.087652 0.000000 2.528367 47.087883 0.000000 1.642647 49.966033 0.000000 -0.327338 47.690807 0.000000 -1.641686 49.964949 0.000000 -0.330718 47.691138 0.000000 1.641684 49.964969 0.000000 -0.334038 47.691945 0.000000 -1.642581 49.966439 0.000000 -2.907641 47.883852 0.000000 -4.614773 49.794719 0.000000 -2.916110 47.889735 0.000000 -1.642036 49.966745 0.000000 -2.911968 47.885214 0.000000 -4.618216 49.783351 0.000000 -4.509758 47.815523 0.000000 -7.668647 49.418998 0.000000 -6.064872 47.702311 0.000000 -4.612278 49.795527 0.000000 -4.509637 47.816539 0.000000 -4.619548 49.784226 0.000000 -6.072021 47.690984 0.000000 -6.068726 47.691058 0.000000 -7.672128 49.408088 0.000000 -8.418969 47.158966 0.000000 -10.697044 48.856945 0.000000 -8.413619 47.175029 0.000000 -7.670478 49.425402 0.000000 19.510809 46.081127 0.000000 16.633107 47.177534 0.000000 16.261499 45.521524 0.000000 16.629076 47.176228 0.000000 13.696450 48.115974 0.000000 16.244764 45.523111 0.000000 16.239506 45.509995 0.000000 13.686813 48.098405 0.000000 13.908742 45.032599 0.000000 8.841084 47.315043 0.000000 10.969113 45.529429 0.000000 10.694986 48.847723 0.000000 10.697848 48.853878 0.000000 10.975018 45.535824 0.000000 13.685037 48.105441 0.000000 13.904016 45.028650 0.000000 13.682394 48.094500 0.000000 10.968699 45.528752 0.000000 10.974870 45.523002 0.000000 8.844502 47.305973 0.000000 8.379026 45.727069 0.000000 6.499876 47.035502 0.000000 8.377398 45.727085 0.000000 8.844294 47.305570 0.000000 8.376887 45.727431 0.000000 6.499367 47.035779 0.000000 6.920914 44.910040 0.000000 2.527033 47.087715 0.000000 4.525630 44.911565 0.000000 4.542638 47.204196 0.000000 6.920603 44.910360 0.000000 6.499209 47.036149 0.000000 4.523978 44.912889 0.000000 4.542820 47.207598 0.000000 4.525608 44.914754 0.000000 6.500882 47.037992 0.000000 4.522839 44.914397 0.000000 2.523848 47.091115 0.000000 2.372889 44.959004 0.000000 2.371623 44.956067 0.000000 2.523285 47.088119 0.000000 0.305328 45.102521 0.000000 -0.332774 47.691845 0.000000 0.304082 45.101314 0.000000 2.522146 47.087162 0.000000 0.303231 45.101740 0.000000 -0.332780 47.692108 0.000000 -1.915682 46.148801 0.000000 -2.906527 47.883550 0.000000 -1.916465 46.148906 0.000000 -0.332863 47.691882 0.000000 -6.068248 47.690350 0.000000 -4.431985 45.901680 0.000000 -4.505845 47.816399 0.000000 -1.917096 46.150119 0.000000 -2.907850 47.884376 0.000000 -4.431961 45.898244 0.000000 -4.505648 47.813766 0.000000 -4.431855 45.899069 0.000000 -2.907816 47.885197 0.000000 -8.417182 47.157657 0.000000 -6.765542 46.074753 0.000000 -6.067379 47.691309 0.000000 -4.431259 45.900793 0.000000 -6.067458 47.689478 0.000000 -6.765715 46.073013 0.000000 -6.763619 46.072955 0.000000 -8.415105 47.156212 0.000000 -8.315074 45.317899 0.000000 -13.688305 48.105903 0.000000 -10.990070 45.620984 0.000000 -10.700901 48.853601 0.000000 -8.315392 45.318421 0.000000 -8.415085 47.156754 0.000000 -10.983910 45.608667 0.000000 -10.692607 48.846810 0.000000 -10.985801 45.613795 0.000000 -8.414316 47.157855 0.000000 -10.990007 45.619971 0.000000 -13.692427 48.098980 0.000000 -13.448082 45.683070 0.000000 -19.500262 46.079054 0.000000 -15.756327 45.228047 0.000000 -16.622994 47.176428 0.000000 -16.622995 47.176219 0.000000 -15.747032 45.231962 0.000000 -13.688035 48.108421 0.000000 -13.449352 45.680401 0.000000 -13.692587 48.096300 0.000000 -15.748382 45.218838 0.000000 22.290830 44.772056 0.000000 19.495410 46.063932 0.000000 20.347427 43.527436 0.000000 20.350357 43.513743 0.000000 19.497511 46.049939 0.000000 18.119063 43.569415 0.000000 16.236685 45.513118 0.000000 18.110736 43.568869 0.000000 19.490036 46.048923 0.000000 18.113114 43.564414 0.000000 16.235588 45.505212 0.000000 15.606323 43.139112 0.000000 13.905782 45.028877 0.000000 15.606789 43.141047 0.000000 16.236043 45.507192 0.000000 10.971418 45.525301 0.000000 13.029570 42.868521 0.000000 13.906871 45.026142 0.000000 15.609281 43.138332 0.000000 13.907986 45.026129 0.000000 13.031340 42.868329 0.000000 13.031365 42.866045 0.000000 10.972803 45.522383 0.000000 10.585822 42.451822 0.000000 6.920492 44.909734 0.000000 8.644491 43.861649 0.000000 8.376424 45.727169 0.000000 10.585550 42.449856 0.000000 10.972325 45.520403 0.000000 8.644308 43.861782 0.000000 8.376398 45.727304 0.000000 8.644569 43.861911 0.000000 10.972072 45.521475 0.000000 4.523274 44.912838 0.000000 6.552899 43.008539 0.000000 6.919941 44.910164 0.000000 8.643823 43.861906 0.000000 6.919927 44.910094 0.000000 6.552939 43.008569 0.000000 6.552669 43.008761 0.000000 4.522985 44.913027 0.000000 4.633095 42.366380 0.000000 0.308812 45.102150 0.000000 2.136709 42.719261 0.000000 2.375093 44.955829 0.000000 4.633127 42.364914 0.000000 4.523016 44.911643 0.000000 2.134732 42.720260 0.000000 2.375464 44.959003 0.000000 2.137207 42.722502 0.000000 4.525407 44.914098 0.000000 2.135692 42.720296 0.000000 0.308135 45.103038 0.000000 -0.436825 42.939138 0.000000 -4.428176 45.898624 0.000000 -2.211632 44.169092 0.000000 -1.913286 46.150463 0.000000 -0.437509 42.937811 0.000000 0.307575 45.101385 0.000000 -2.209509 44.166818 0.000000 -1.913454 46.147451 0.000000 -2.211700 44.166015 0.000000 0.305622 45.100705 0.000000 -2.211739 44.169216 0.000000 -4.428101 45.898538 0.000000 -4.477483 43.110692 0.000000 -8.313741 45.318525 0.000000 -6.594513 44.298760 0.000000 -6.762372 46.073510 0.000000 -4.477456 43.111906 0.000000 -4.428138 45.899783 0.000000 -6.594522 44.297365 0.000000 -6.762297 46.072590 0.000000 -6.594363 44.297812 0.000000 -4.427955 45.900208 0.000000 -10.980613 45.607707 0.000000 -8.817683 43.450627 0.000000 -8.312216 45.317993 0.000000 -6.593297 44.297992 0.000000 -8.312307 45.317684 0.000000 -8.817738 43.450374 0.000000 -8.815955 43.448921 0.000000 -10.978550 45.605605 0.000000 -11.135246 42.536311 0.000000 -15.744821 45.218983 0.000000 -13.365445 43.788422 0.000000 -13.445300 45.679008 0.000000 -11.135776 42.535658 0.000000 -10.979208 45.605269 0.000000 -13.357787 43.782124 0.000000 -13.444507 45.680304 0.000000 -13.364757 43.789455 0.000000 -10.985954 45.611656 0.000000 -13.360945 43.785755 0.000000 -15.741438 45.215643 0.000000 -15.565753 42.422897 0.000000 -19.488419 46.050026 0.000000 -18.030337 43.323834 0.000000 -15.740094 45.219869 0.000000 -15.566374 42.422789 0.000000 -15.742954 45.215445 0.000000 -18.033618 43.319630 0.000000 -18.034940 43.324182 0.000000 -19.494509 46.049517 0.000000 -20.290504 43.507293 0.000000 -22.293478 44.772833 0.000000 -20.290319 43.524043 0.000000 -19.499554 46.067940 0.000000 27.629118 41.691642 0.000000 25.011685 43.313991 0.000000 25.418917 40.715198 0.000000 25.411698 40.711198 0.000000 25.004087 43.309488 0.000000 22.294354 41.339913 0.000000 20.350710 43.514852 0.000000 22.294091 41.332078 0.000000 22.292623 44.761761 0.000000 25.006833 43.312479 0.000000 22.294319 44.770421 0.000000 22.296143 41.341309 0.000000 18.115882 43.567548 0.000000 19.544070 41.857058 0.000000 20.347176 43.512344 0.000000 22.291390 41.331760 0.000000 20.348318 43.514600 0.000000 19.546121 41.858839 0.000000 15.607379 43.139091 0.000000 17.457507 41.323777 0.000000 18.114393 43.563810 0.000000 19.544793 41.855622 0.000000 18.114889 43.564685 0.000000 17.457990 41.324591 0.000000 17.457766 41.323445 0.000000 15.606867 43.137923 0.000000 14.894502 40.539480 0.000000 13.028932 42.868062 0.000000 14.893736 40.539841 0.000000 15.606885 43.138022 0.000000 14.895625 40.537616 0.000000 13.030194 42.865143 0.000000 12.208863 40.518005 0.000000 10.584928 42.451368 0.000000 12.208830 40.518629 0.000000 13.030439 42.865771 0.000000 12.209374 40.517941 0.000000 10.585549 42.450597 0.000000 10.194612 40.378308 0.000000 6.553090 43.008651 0.000000 8.452351 41.550916 0.000000 8.643867 43.861891 0.000000 10.194546 40.377866 0.000000 10.585431 42.450161 0.000000 8.452568 41.551017 0.000000 8.643898 43.861977 0.000000 8.452331 41.550887 0.000000 10.585219 42.450081 0.000000 8.452201 41.551030 0.000000 6.552922 43.008764 0.000000 6.137588 40.444237 0.000000 4.633575 42.366508 0.000000 6.137653 40.444525 0.000000 6.552946 43.008912 0.000000 6.136457 40.446009 0.000000 4.633281 42.367119 0.000000 3.810841 40.739567 0.000000 2.134179 42.720333 0.000000 3.809473 40.736551 0.000000 4.632133 42.365109 0.000000 3.809183 40.736892 0.000000 2.133717 42.720906 0.000000 1.965933 39.850754 0.000000 1.965882 39.849488 0.000000 2.133666 42.719841 0.000000 -0.109308 40.891973 0.000000 -0.437867 42.939233 0.000000 -0.108816 40.892383 0.000000 2.134368 42.720397 0.000000 -4.476715 43.111009 0.000000 -2.319822 41.807866 0.000000 -2.211150 44.169516 0.000000 -0.108960 40.893239 0.000000 -0.437978 42.940014 0.000000 -2.318370 41.807314 0.000000 -2.211234 44.168053 0.000000 -2.319890 41.806401 0.000000 -0.439415 42.939133 0.000000 -2.320816 41.808486 0.000000 -4.477571 43.111515 0.000000 -4.547840 40.556182 0.000000 -8.818245 43.449899 0.000000 -6.768751 41.930645 0.000000 -6.594064 44.297713 0.000000 -6.594148 44.297175 0.000000 -6.768764 41.929997 0.000000 -4.477368 43.111852 0.000000 -4.547831 40.556435 0.000000 -4.477568 43.111731 0.000000 -6.768985 41.929821 0.000000 -11.136094 42.535958 0.000000 -9.118536 41.002704 0.000000 -8.817015 43.448519 0.000000 -6.768198 41.930247 0.000000 -
[...]
<PointData Vectors='Velocity Force Displacement'>
<DataArray type='Float32' Name='Velocity' NumberOfComponents='3' format='ascii'>
1.308299 4.676532 0.000000 1.552802 6.444820 0.000000 0.380234 5.784386 0.000000 -0.277012 7.481000 0.000000 -1.338021 6.609514 0.000000 -0.374714 6.093037 0.000000 -0.297906 1.699737 0.000000 -1.175656 1.177791 0.000000 -0.205050 0.753054 0.000000 1.530736 1.276880 0.000000 1.988310 1.446039 0.000000 1.652939 1.471994 0.000000 0.015372 -2.071712 0.000000 3.016868 -2.743024 0.000000 0.318322 -0.243285 0.000000 4.156681 1.368978 0.000000 0.165849 1.302035 0.000000 4.280297 -1.113655 0.000000 -0.407767 -1.860398 0.000000 -0.154544 -1.903087 0.000000 -0.059992 -2.115624 0.000000 0.145546 -0.752215 0.000000 -0.034071 -0.744345 0.000000 0.691045 -1.003204 0.000000 -0.352379 -1.925550 0.000000 0.090465 -1.517679 0.000000 0.140526 -1.842415 0.000000 -0.512987 3.165862 0.000000 -4.084121 0.203135 0.000000 -0.124378 -2.047069 0.000000 -3.987550 -0.026838 0.000000 -1.984504 2.062702 0.000000 -3.116094 1.359957 0.000000 -0.280036 4.430916 0.000000 -0.360811 4.360453 0.000000 -0.224367 4.291537 0.000000 -3.386637 1.575483 0.000000 -2.787152 1.102153 0.000000 -2.249912 0.853302 0.000000 -1.562425 1.218392 0.000000 -1.330561 1.470721 0.000000 -1.652960 1.568135 0.000000 -0.697431 5.711499 0.000000 0.019447 6.510636 0.000000 -0.778876 6.714932 0.000000 8.309810 12.670182 0.000000 6.648944 7.562917 0.000000 9.630974 6.840695 0.000000 3.913808 7.025869 0.000000 4.754697 9.459294 0.000000 2.497042 7.357215 0.000000 1.435360 2.273610 0.000000 2.422477 3.840265 0.000000 1.101032 3.573888 0.000000 0.020522 2.676294 0.000000 0.152039 2.641165 0.000000 -0.150291 2.953587 0.000000 1.081781 4.652218 0.000000 1.801610 4.396994 0.000000 1.344862 5.287480 0.000000 -1.118520 2.421256 0.000000 -0.394424 2.632779 0.000000 -1.133464 3.324401 0.000000 1.625512 0.654197 0.000000 1.324675 0.198451 0.000000 1.877381 -0.080339 0.000000 0.842286 0.496607 0.000000 0.918146 0.294321 0.000000 1.028310 0.041794 0.000000 0.976430 -0.037998 0.000000 0.918448 -0.077703 0.000000 1.295673 -0.047473 0.000000 0.652864 -1.435266 0.000000 1.859105 -1.519552 0.000000 0.954819 -1.265421 0.000000 1.680983 -0.077923 0.000000 1.247661 -0.190428 0.000000 1.551118 -0.563631 0.000000 1.204768 -0.222751 0.000000 1.724788 -0.158964 0.000000 1.326402 -0.058736 0.000000 0.408722 0.007729 0.000000 -0.212499 -0.567151 0.000000 0.460221 -0.478566 0.000000 -0.665785 -1.614449 0.000000 0.870465 -2.083614 0.000000 0.446913 -1.601269 0.000000 -0.218413 -1.184173 0.000000 0.294080 -1.427070 0.000000 -0.020417 -1.107262 0.000000 -0.169203 -0.867779 0.000000 0.042990 -1.887454 0.000000 -0.268194 -1.719531 0.000000 -0.133795 -2.123370 0.000000 -0.520186 -2.131972 0.000000 -0.544026 -1.754416 0.000000 -1.510239 0.144108 0.000000 -1.248885 0.345382 0.000000 -1.306620 0.350192 0.000000 -1.496064 -0.564671 0.000000 -1.939321 -0.821695 0.000000 -1.185733 -0.745752 0.000000 -1.088909 -0.053723 0.000000 -1.157412 -0.206016 0.000000 -1.025602 0.171775 0.000000 -0.729755 0.808181 0.000000 -0.805662 0.969857 0.000000 -1.129372 1.128239 0.000000 -1.395596 0.207403 0.000000 -1.297817 0.264277 0.000000 -1.378124 0.112651 0.000000 -0.663197 -0.055269 0.000000 -0.455513 0.377947 0.000000 -0.850559 0.250951 0.000000 -2.336257 5.091165 0.000000 -0.520925 6.277783 0.000000 -2.337468 6.505898 0.000000 -1.122704 0.402026 0.000000 -0.507748 0.404074 0.000000 -1.397176 0.881560 0.000000 2.397822 3.300672 0.000000 -1.436694 3.219074 0.000000 0.382376 0.570509 0.000000 -2.744423 3.537700 0.000000 -5.696516 7.861677 0.000000 -4.922941 5.816830 0.000000 -4.608109 12.198529 0.000000 -5.823805 5.402644 0.000000 -2.301828 7.005426 0.000000 -2.021823 7.140900 0.000000 -2.874067 6.902536 0.000000 -1.349485 6.291487 0.000000 -4.361942 6.091578 0.000000 -6.060312 5.844805 0.000000 -3.891175 3.560238 0.000000 1.500162 4.925712 0.000000 2.257933 6.773221 0.000000 0.691878 6.216622 0.000000 1.408685 1.829096 0.000000 2.854894 2.353721 0.000000 1.444927 3.016218 0.000000 0.646506 4.224465 0.000000 -1.177458 2.576488 0.000000 1.034788 1.368444 0.000000 -0.037041 1.276846 0.000000 0.179170 1.353417 0.000000 -0.126598 0.903685 0.000000 -0.699144 0.929885 0.000000 0.017983 1.097282 0.000000 -0.116285 1.344469 0.000000 0.676802 0.430754 0.000000 0.398070 0.903996 0.000000 0.430438 1.145579 0.000000 0.439978 1.046792 0.000000 0.393444 0.434588 0.000000 0.644724 -0.159467 0.000000 1.322054 -0.352907 0.000000 1.460427 -0.157123 0.000000 0.763953 0.070120 0.000000 0.805395 -0.176820 0.000000 0.888227 -0.106931 0.000000 0.854518 -0.129028 0.000000 1.100559 -0.084954 0.000000 0.929777 -0.115750 0.000000 1.021985 -0.172581 0.000000 0.918777 0.085423 0.000000 0.811981 0.171290 0.000000 1.173988 -0.238728 0.000000 0.727185 -0.357006 0.000000 0.978006 -0.111091 0.000000 0.960671 -0.264059 0.000000 0.822602 -0.270956 0.000000 0.795760 -0.238827 0.000000 0.829464 0.070254 0.000000 0.711539 0.129096 0.000000 0.923472 -0.040805 0.000000 0.387487 0.251428 0.000000 0.132293 -0.363078 0.000000 0.363131 0.069713 0.000000 0.342821 -0.131511 0.000000 0.331437 1.005496 0.000000 0.558948 -0.169007 0.000000 0.317879 0.527570 0.000000 0.422074 -0.224362 0.000000 0.234429 0.396825 0.000000 0.659952 -0.339679 0.000000 0.285468 -0.205135 0.000000 0.246257 -0.614136 0.000000 0.166052 -0.435077 0.000000 -0.024073 -0.927186 0.000000 -0.157966 -0.700715 0.000000 -0.002944 -0.737794 0.000000 0.246844 -0.552069 0.000000 0.360435 -0.925119 0.000000 0.273561 -1.449545 0.000000 -0.824988 -1.344724 0.000000 0.029287 -1.051190 0.000000 -0.517171 -0.219957 0.000000 -0.166957 -0.621925 0.000000 -0.089001 -0.566622 0.000000 -0.325020 -0.609398 0.000000 -0.203920 0.852816 0.000000 -0.231871 0.545231 0.000000 0.476944 0.624210 0.000000 -0.266869 -0.250326 0.000000 -0.217957 -0.140349 0.000000 0.102228 -0.034726 0.000000 0.353054 0.458487 0.000000 -0.087746 0.470315 0.000000 0.326522 -0.226429 0.000000 -0.614333 0.817698 0.000000 0.640665 0.414564 0.000000 0.645697 0.271729 0.000000 1.087086 0.002715 0.000000 0.791970 0.256161 0.000000 0.494427 0.365945 0.000000 1.953725 -1.012509 0.000000 0.784169 0.634430 0.000000 1.458782 0.077942 0.000000 -4.071210 3.375380 0.000000 -3.739800 1.535280 0.000000 -3.656852 2.380507 0.000000 0.164843 -0.730446 0.000000 -0.944212 -0.016045 0.000000 -0.141404 -0.077770 0.000000 -1.630780 2.267846 0.000000 -1.386161 2.783160 0.000000 -2.117154 3.205656 0.000000 -0.827252 0.072275 0.000000 -0.586965 0.766187 0.000000 -1.423788 0.402917 0.000000 -0.322391 1.729885 0.000000 -0.314445 1.642850 0.000000 -0.291849 1.773247 0.000000 -1.286062 1.536002 0.000000 -1.215611 1.535288 0.000000 -1.243478 1.659050 0.000000 -0.932195 2.613046 0.000000 -1.784144 2.391665 0.000000 -1.031412 2.065155 0.000000 -2.465293 5.188160 0.000000 -1.114989 7.382162 0.000000 -3.771556 8.227923 0.000000 3.628604 4.793468 0.000000 3.774244 4.980266 0.000000 3.551547 4.929564 0.000000 7.705347 8.484633 0.000000 9.512784 10.348752 0.000000 4.633019 5.781691 0.000000 1.233688 2.978360 0.000000 1.075050 2.884373 0.000000 1.336188 2.852255 0.000000 2.417842 4.825410 0.000000 2.712624 5.167628 0.000000 1.711476 6.987337 0.000000 0.594207 2.735604 0.000000 -0.622982 1.758061 0.000000 0.529166 1.223374 0.000000 0.747686 2.342786 0.000000 0.406846 2.342122 0.000000 0.559945 2.263638 0.000000 0.300830 0.468932 0.000000 0.939164 0.797988 0.000000 0.004089 1.239153 0.000000 0.479489 0.846176 0.000000 0.237874 0.594049 0.000000 0.579987 0.527433 0.000000 0.311457 1.165056 0.000000 -0.391848 0.707112 0.000000 0.209855 0.766211 0.000000 -0.364367 0.861870 0.000000 0.068550 1.006312 0.000000 -0.152429 0.895796 0.000000 0.658808 -0.039544 0.000000 0.936720 -0.212345 0.000000 0.850149 -0.019460 0.000000 0.608466 -0.120986 0.000000 0.702660 -0.286650 0.000000 0.632207 -0.076995 0.000000 1.069780 -0.203449 0.000000 0.943609 -0.144392 0.000000 0.913151 -0.311282 0.000000 0.795645 -0.031878 0.000000 1.042268 0.741598 0.000000 0.961770 -0.057212 0.000000 0.576689 -0.140591 0.000000 0.806297 -0.145910 0.000000 0.908248 0.312193 0.000000 1.275583 -0.060381 0.000000 0.900388 0.337822 0.000000 1.339896 -0.367096 0.000000 1.043883 -0.082204 0.000000 0.523057 0.273552 0.000000 0.952518 1.409550 0.000000 0.386511 0.610007 0.000000 0.916709 1.305311 0.000000 1.009557 0.815309 0.000000 -0.084379 4.344665 0.000000 1.991697 3.561428 0.000000 -0.201935 7.111233 0.000000 -0.300305 0.031032 0.000000 -3.051320 3.778741 0.000000 -1.231153 1.170788 0.000000 -0.357411 0.128817 0.000000 0.234765 0.266589 0.000000 -0.620005 0.208716 0.000000 -0.569830 -0.332167 0.000000 0.010240 -0.300009 0.000000 -0.340047 -0.592575 0.000000 0.103869 -0.555769 0.000000 0.376229 -0.632173 0.000000 0.113593 -0.255021 0.000000 -0.153511 -0.425188 0.000000 0.104184 -0.517256 0.000000 0.094016 -0.521844 0.000000 0.322235 -0.763964 0.000000 0.245067 -0.526597 0.000000 0.027744 -0.437434 0.000000 -0.241841 -0.766644 0.000000 0.125310 -0.757529 0.000000 0.151513 -0.752560 0.000000 0.055736 -0.600985 0.000000 -0.032196 -0.599970 0.000000 0.051957 -0.733327 0.000000 0.452629 0.154384 0.000000 -0.040845 -0.285118 0.000000 0.087554 0.000021 0.000000 0.157739 -0.495925 0.000000 0.071420 -0.155857 0.000000 0.316743 -0.310118 0.000000 0.095941 -0.605984 0.000000 -0.041530 -0.480466 0.000000 -0.374583 -0.509884 0.000000 -0.071362 -0.610821 0.000000 1.499945 -1.786371 0.000000 1.051311 -0.890772 0.000000 0.580099 -0.232975 0.000000 0.283829 -0.085343 0.000000 0.500556 -0.401885 0.000000 0.378228 -1.202393 0.000000 -0.467528 -0.277220 0.000000 0.247584 -1.371368 0.000000 -0.609701 -0.199839 0.000000 -0.488203 0.287324 0.000000 -0.418097 0.442807 0.000000 -0.213021 -0.099746 0.000000 -0.481875 -0.730758 0.000000 -0.730733 -0.865395 0.000000 0.386084 -0.585530 0.000000 -0.345062 -0.278411 0.000000 -0.381912 -1.092177 0.000000 -0.090719 0.003235 0.000000 -0.496471 -0.179597 0.000000 0.333354 -0.430776 0.000000 -0.146021 0.440767 0.000000 0.481152 0.419655 0.000000 0.088282 0.978463 0.000000 -1.231563 0.978069 0.000000 -0.737189 1.007675 0.000000 -1.125007 1.638775 0.000000 -0.733421 1.304500 0.000000 -0.899695 1.355682 0.000000 -0.896918 1.009339 0.000000 -1.120521 0.977096 0.000000 0.196044 1.520170 0.000000 -1.018427 2.663604 0.000000 -2.848083 4.560599 0.000000 -2.802124 4.436231 0.000000 -2.950294 4.623620 0.000000 -0.971488 1.948292 0.000000 -1.192749 1.809319 0.000000 -1.018425 1.457065 0.000000 -1.516493 3.413840 0.000000 -2.179486 3.357426 0.000000 -1.724728 2.962883 0.000000 -0.866081 1.206254 0.000000 -0.420373 2.234810 0.000000 -1.399314 2.012709 0.000000 -3.074691 4.284159 0.000000 -2.852054 4.505881 0.000000 -3.274578 4.596113 0.000000 8.289916 7.031352 0.000000 6.737255 5.159751 0.000000 7.978001 5.074910 0.000000 3.960178 2.073947 0.000000 6.781487 4.993584 0.000000 2.925336 5.097319 0.000000 3.001753 5.111236 0.000000 1.474564 5.058411 0.000000 2.053784 3.806520 0.000000 0.519056 2.275202 0.000000 0.616306 2.284002 0.000000 0.952216 2.600752 0.000000 6.942173 2.093229 0.000000 4.597364 1.701897 0.000000 0.993765 1.799171 0.000000 0.943897 4.542110 0.000000 4.014887 2.061390 0.000000 5.294961 5.911380 0.000000 -0.666209 -5.482436 0.000000 -0.198197 0.941079 0.000000 -4.975635 -1.592289 0.000000 1.144003 1.729199 0.000000 0.097977 0.735063 0.000000 1.385622 0.633814 0.000000 -4.478932 -0.608353 0.000000 -1.269917 1.301219 0.000000 -8.170966 -0.633792 0.000000 -2.332689 1.676562 0.000000 -0.076768 1.307094 0.000000 -1.565312 3.938778 0.000000 0.038990 1.405843 0.000000 -0.009069 1.017318 0.000000 0.587474 0.669356 0.000000 0.334108 0.451432 0.000000 0.851206 0.876392 0.000000 0.127105 1.086510 0.000000 0.334618 0.638239 0.000000 0.638539 1.075096 0.000000 0.414634 0.500714 0.000000 0.871401 0.071626 0.000000 0.764679 0.269935 0.000000 0.745698 -0.267561 0.000000 0.620831 -0.077880 0.000000 0.765292 -0.092409 0.000000 0.681342 -0.079340 0.000000 0.806117 -0.195268 0.000000 0.543362 -0.052723 0.000000 0.788838 -0.114504 0.000000 0.460926 0.039755 0.000000 0.365889 -0.125918 0.000000 0.189909 0.178001 0.000000 2.756258 1.356747 0.000000 3.306711 2.735298 0.000000 1.087229 0.296904 0.000000 0.717421 -0.306690 0.000000 0.517218 -0.331750 0.000000 0.537416 -0.761378 0.000000 1.515785 0.346217 0.000000 1.997253 0.101517 0.000000 1.024017 -0.290677 0.000000 3.005469 0.961062 0.000000 2.473796 1.999929 0.000000 5.460474 -0.259747 0.000000 -0.906375 -0.523773 0.000000 -1.883601 -0.734534 0.000000 0.004200 0.148516 0.000000 7.033981 5.797247 0.000000 5.438239 13.188780 0.000000 0.635715 12.668427 0.000000 -2.394796 7.398473 0.000000 -5.367588 6.839013 0.000000 -3.163056 13.213768 0.000000 -1.248526 -1.390141 0.000000 -0.139158 -0.357025 0.000000 -0.448066 -1.419936 0.000000 -0.479369 -1.043327 0.000000 -0.067968 -0.846732 0.000000 -0.339543 -1.017351 0.000000 0.220842 -0.575142 0.000000 0.243207 -1.067833 0.000000 0.102099 -0.610268 0.000000 -0.025407 -0.306702 0.000000 0.055569 -0.961948 0.000000 0.033295 -0.682063 0.000000 -0.052716 -1.240608 0.000000 -0.128699 -0.933151 0.000000 -0.180319 -0.917954 0.000000 0.305915 -0.731139 0.000000 -0.103447 -1.175038 0.000000 0.022012 -0.855343 0.000000 -0.122252 -1.131008 0.000000 0.215096 -0.908378 0.000000 -0.138283 -0.881605 0.000000 0.327450 -0.861261 0.000000 0.338410 -1.329466 0.000000 1.037652 -1.074951 0.000000 -0.188500 -0.931064 0.000000 0.071379 -0.506540 0.000000 0.184612 -0.709009 0.000000 0.785080 -1.023966 0.000000 0.224892 -0.580917 0.000000 0.436226 -0.937705 0.000000 -0.101354 -0.400635 0.000000 -0.096566 -0.885888 0.000000 0.352216 -0.732903 0.000000 0.176681 -0.640094 0.000000 0.164531 -0.902243 0.000000 -0.029325 -0.413404 0.000000 -0.135965 -0.652393 0.000000 -0.015390 -0.780617 0.000000 -0.153688 -0.851846 0.000000 -0.728252 0.334674 0.000000 -0.593770 -0.464305 0.000000 -0.531538 0.188835 0.000000 -0.410614 -0.344308 0.000000 -0.395381 -0.693028 0.000000 0.026683 -1.066794 0.000000 -0.156197 -0.683147 0.000000 -0.146268 -0.710165 0.000000 -0.030653 -0.904529 0.000000 -0.450061 -0.305514 0.000000 -0.078758 0.274693 0.000000 -0.807430 0.197267 0.000000 -1.428084 0.523024 0.000000 -1.019927 0.586953 0.000000 -1.252554 1.049308 0.000000 -0.558325 0.601834 0.000000 -0.530130 0.578514 0.000000 -0.528142 0.600882 0.000000 -0.539343 2.257732 0.000000 0.409422 2.621236 0.000000 -0.501114 3.670123 0.000000 -0.606331 0.359029 0.000000 -1.554922 0.171475 0.000000 -0.706648 -0.762467 0.000000 -0.427571 0.903812 0.000000 1.437375 1.378414 0.000000 -0.037131 1.437405 0.000000 -0.169095 1.708890 0.000000 0.086988 2.912346 0.000000 0.138111 1.411996 0.000000 1.402214 6.303539 0.000000 -0.556614 2.623237 0.000000 0.057252 6.529241 0.000000 -4.811975 5.312848 0.000000 -1.662086 5.272116 0.000000 -4.937966 7.467711 0.000000 -4.019660 4.079606 0.000000 -3.995409 4.077720 0.000000 -3.951631 4.080638 0.000000 -3.413361 2.958470 0.000000 -2.435661 2.702478 0.000000 -2.583383 3.834977 0.000000 -1.317012 1.760075 0.000000 -0.734585 1.799436 0.000000 -0.868966 2.283298 0.000000 -4.612109 3.580700 0.000000 -5.106390 3.958372 0.000000 -4.984603 3.493819 0.000000 -1.091758 2.606808 0.000000 -1.345809 1.714694 0.000000 -0.679861 1.914771 0.000000 4.939777 3.425949 0.000000 4.945617 3.614497 0.000000 4.853720 3.651620 0.000000 0.233468 1.798699 0.000000 0.586215 1.906921 0.000000 0.392356 1.994117 0.000000 2.254313 2.288446 0.000000 1.600105 2.369226 0.000000 2.156193 1.323846 0.000000 2.136036 2.570690 0.000000 1.738981 2.633536 0.000000 1.852596 1.947557 0.000000 1.243960 -0.084420 0.000000 0.537786 1.010725 0.000000 0.591926 0.894507 0.000000 0.270497 0.965676 0.000000 0.389061 1.267052 0.000000 -0.073287 2.337879 0.000000 -1.365371 4.236204 0.000000 0.582328 2.283675 0.000000 0.045833 2.458389 0.000000 -0.609174 0.162969 0.000000 1.373441 1.060066 0.000000 -0.172517 0.856152 0.000000 -1.434162 -2.686629 0.000000 -2.991837 -4.922686 0.000000 2.176730 -0.117194 0.000000 -2.257590 -3.773818 0.000000 -0.768132 -2.661477 0.000000 -3.000506 -2.874582 0.000000 -2.163941 -1.926743 0.000000 -0.946082 -1.938110 0.000000 -2.293930 -1.935962 0.000000 0.329816 0.328766 0.000000 0.730885 0.757779 0.000000 0.425058 0.538161 0.000000 -2.845292 -1.019416 0.000000 -2.648865 -1.712296 0.000000 -1.276071 -1.529424 0.000000 0.706455 0.659900 0.000000 0.820916 0.684817 0.000000 0.675155 0.280888 0.000000 0.519969 0.353763 0.000000 0.406324 0.277026 0.000000 0.728873 -0.079564 0.000000 0.764085 -0.317863 0.000000 0.942462 -0.703004 0.000000 0.716488 -0.061813 0.000000 0.637677 0.203932 0.000000 0.341077 -0.086257 0.000000 0.338390 -0.282017 0.000000 0.591752 0.106267 0.000000 0.296479 -0.617971 0.000000 0.683181 -0.422295 0.000000 0.320526 -0.545713 0.000000 0.466891 -0.193186 0.000000 0.203709 -0.369979 0.000000 2.301670 -0.187684 0.000000 1.625150 -0.678739 0.000000 -0.024416 -0.626819 0.000000 0.642682 -0.870549 0.000000 0.508454 -0.060382 0.000000 0.993147 -1.092493 0.000000 0.052826 -0.547661 0.000000 0.560813 -0.986845 0.000000 0.792653 -0.535158 0.000000 0.549344 -1.194859 0.000000 1.372122 -2.395870 0.000000 5.178133 -7.097280 0.000000 -1.842351 -13.668129 0.000000 -4.615809 -18.760932 0.000000 5.926420 -9.507231 0.000000 -0.872119 -3.613883 0.000000 -6.646315 -9.693703 0.000000 -4.125721 -7.825872 0.000000 -0.917421 -1.007602 0.000000 -0.196421 -2.027091 0.000000 -1.975972 -1.546951 0.000000 -0.845635 -1.632606 0.000000 -0.736551 -1.884027 0.000000 -0.584997 -1.163940 0.000000 -0.228572 -1.208763 0.000000 -0.185985 -1.245276 0.000000 -0.023036 -0.983840 0.000000 -0.389582 -0.941014 0.000000 -0.246464 -1.339970 0.000000 -0.254330 -1.148403 0.000000 0.134013 -1.121009 0.000000 -0.141173 -1.233798 0.000000 -0.066347 -1.201932 0.000000 -0.401310 -1.105927 0.000000 0.004981 -1.230606 0.000000 -0.651657 -1.344993 0.000000 -0.495090 -0.975089 0.000000 -0.282490 -1.173381 0.000000 0.189554 -1.294793 0.000000 -0.512064 -0.808561 0.000000 -0.276155 -0.795913 0.000000 -0.542129 -1.080722 0.000000 -0.454489 -0.978265 0.000000 -0.505441 -1.114720 0.000000 -0.490225 -0.810427 0.000000 0.185386 -0.716090 0.000000 -0.413117 -1.008564 0.000000 -0.274669 -0.745199 0.000000 -0.853600 -1.063222 0.000000 -0.117145 -0.866859 0.000000 -0.473239 -0.876525 0.000000 0.202906 -1.397059 0.000000 -0.247607 -0.408800 0.000000 -0.083474 -0.974017 0.000000 -0.479794 -0.630040 0.000000 -0.463030 -0.693007 0.000000 -0.160742 -0.881668 0.000000 -0.185719 -0.608530 0.000000 -0.481638 -0.474915 0.000000 -0.335067 -0.733926 0.000000 -0.279944 -1.034532 0.000000 0.108542 -0.679840 0.000000 -0.164199 -0.768461 0.000000 -0.571453 0.006543 0.000000 -0.994149 -0.205107 0.000000 -0.534224 -0.547808 0.000000 -0.612293 -0.648202 0.000000 -0.195999 -0.436595 0.000000 -0.651480 -0.296773 0.000000 -0.580470 -0.200778 0.000000 -0.573435 -0.293418 0.000000 -0.720134 -0.360847 0.000000 -0.505872 0.120879 0.000000 -0.166199 0.400430 0.000000 0.148584 0.581572 0.000000 -1.151120 0.350039 0.000000 -0.439529 0.300676 0.000000 -1.170048 0.496140 0.000000 -0.470850 0.230049 0.000000 -0.364106 0.566792 0.000000 -0.241721 0.374681 0.000000 0.793346 5.513743 0.000000 -0.875476 0.396291 0.000000 -0.001304 1.596106 0.000000 0.145557 0.008126 0.000000 1.299286 0.964924 0.000000 -0.256057 -0.703590 0.000000 1.579324 2.164777 0.000000 -1.749666 4.589229 0.000000 -4.266657 1.624282 0.000000 -2.870964 3.381073 0.000000 -1.297442 1.054033 0.000000 -3.091301 3.685919 0.000000 -1.989602 0.297280 0.000000 -0.609322 0.941372 0.000000 -0.810122 0.858980 0.000000 -0.569673 2.266186 0.000000 0.447159 5.481962 0.000000 -0.603353 3.035419 0.000000 -0.301058 1.063760 0.000000 -0.292571 1.109888 0.000000 -0.215362 0.760386 0.000000 -1.088204 2.025088 0.000000 -1.060568 1.111965 0.000000 -0.248411 1.221286 0.000000 -1.457188 6.879512 0.000000 -0.432017 7.160099 0.000000 -2.424017 11.845767 0.000000 -0.358165 2.268510 0.000000 -0.501042 2.500198 0.000000 -0.430996 2.892123 0.