<?xml version='1.0'?>
<VTKFile type='PolyData' version='0.1' byte_order='LittleEndian'><PolyData>
<Piece NumberOfPoints='9000' NumberOfVerts='0' NumberOfLines='0' NumberOfStrips='0' NumberOfPolys='3000'>
<Points>
<DataArray type='Float32' NumberOfComponents='3' format='ascii'>
10.756958 49.129802 0.000000 7.746245 49.777073 0.000000 8.862296 47.647743 0.000000 4.604901 49.833717 0.000000 6.626631 47.186759 0.000000 7.676342 49.610994 0.000000 8.933454 47.473535 0.000000 7.678469 49.524054 0.000000 6.601370 47.111862 0.000000 6.590085 47.110813 0.000000 4.626006 49.800826 0.000000 4.627894 47.223764 0.000000 1.637562 49.910149 0.000000 2.591132 47.053590 0.000000 4.613062 49.795501 0.000000 4.604907 47.219460 0.000000 4.615415 49.796501 0.000000 2.592488 47.055324 0.000000 2.517551 47.029997 0.000000 1.636075 49.909626 0.000000 -0.337227 47.636523 0.000000 -1.649703 49.909891 0.000000 -0.338906 47.636002 0.000000 1.633636 49.909764 0.000000 -0.344874 47.632364 0.000000 -1.650104 49.909453 0.000000 -2.918116 47.828583 0.000000 -4.629577 49.902995 0.000000 -3.039709 47.906385 0.000000 -1.651879 49.909335 0.000000 -3.031815 47.896104 0.000000 -4.646891 49.872385 0.000000 -4.631243 47.901664 0.000000 -7.730841 49.656099 0.000000 -6.226694 47.851487 0.000000 -4.658041 49.859219 0.000000 -4.642437 47.872772 0.000000 -4.655000 49.843513 0.000000 -6.209222 47.824589 0.000000 -6.156888 47.765068 0.000000 -7.710174 49.527563 0.000000 -8.521584 47.300914 0.000000 -10.752442 49.191798 0.000000 -8.461000 47.520785 0.000000 -7.728598 49.774657 0.000000 19.969336 46.778192 0.000000 16.998144 47.587744 0.000000 16.790371 45.903307 0.000000 16.843627 47.561740 0.000000 13.957813 48.636650 0.000000 16.382956 45.928254 0.000000 16.309410 45.648442 0.000000 13.824727 48.302322 0.000000 13.967042 45.231767 0.000000 8.922020 47.522054 0.000000 11.026394 45.708441 0.000000 10.796077 49.030084 0.000000 10.791273 49.116766 0.000000 11.049486 45.797175 0.000000 13.774141 48.351355 0.000000 13.928071 45.177855 0.000000 13.701320 48.243331 0.000000 10.991906 45.672988 0.000000 11.049606 45.617052 0.000000 8.921209 47.402412 0.000000 8.454008 45.823992 0.000000 6.559225 47.105520 0.000000 8.452496 45.820032 0.000000 8.900224 47.404086 0.000000 8.442703 45.825383 0.000000 6.549870 47.111517 0.000000 6.996411 44.990891 0.000000 2.581953 47.053929 0.000000 4.603840 44.898324 0.000000 4.596381 47.191202 0.000000 7.003804 44.951524 0.000000 6.554117 47.071484 0.000000 4.607270 44.922151 0.000000 4.596228 47.217545 0.000000 4.609574 44.924694 0.000000 6.556420 47.074027 0.000000 4.530924 44.937164 0.000000 2.529082 47.111400 0.000000 2.380918 44.979009 0.000000 2.371534 44.903576 0.000000 2.523829 47.035680 0.000000 0.305262 45.050689 0.000000 -0.343754 47.634714 0.000000 0.291705 45.043637 0.000000 2.510956 47.027864 0.000000 0.287318 45.040771 0.000000 -0.343340 47.633020 0.000000 -1.929410 46.092542 0.000000 -2.918602 47.828616 0.000000 -1.931804 46.092067 0.000000 -0.345377 47.632178 0.000000 -6.115096 47.779050 0.000000 -4.512579 45.960120 0.000000 -4.550568 47.875932 0.000000 -1.960771 46.141404 0.000000 -2.947445 47.878015 0.000000 -4.476271 45.895364 0.000000 -4.530529 47.871117 0.000000 -4.510786 45.955030 0.000000 -2.931319 47.897562 0.000000 -8.473708 47.284584 0.000000 -6.842609 46.170800 0.000000 -6.114093 47.773913 0.000000 -4.510494 45.955839 0.000000 -6.113943 47.773948 0.000000 -6.841537 46.170416 0.000000 -6.807960 46.147046 0.000000 -8.444964 47.252133 0.000000 -8.369350 45.412655 0.000000 -13.824837 48.405087 0.000000 -11.108717 45.939681 0.000000 -10.843158 49.175117 0.000000 -8.369456 45.412793 0.000000 -8.452977 47.251929 0.000000 -11.035436 45.726221 0.000000 -10.681289 49.027971 0.000000 -11.120496 45.811502 0.000000 -8.481771 47.237690 0.000000 -11.187034 45.911642 0.000000 -13.878374 48.404075 0.000000 -13.645456 45.986996 0.000000 -19.769101 46.719521 0.000000 -16.117257 45.533878 0.000000 -16.804408 47.552560 0.000000 -16.780000 47.580717 0.000000 -15.911844 45.633012 0.000000 -13.841266 48.501152 0.000000 -13.653456 45.985947 0.000000 -13.885708 48.403091 0.000000 -15.954764 45.533852 0.000000 22.370873 45.044746 0.000000 19.622800 46.434512 0.000000 20.384742 43.869521 0.000000 20.422010 43.656226 0.000000 19.623524 46.210078 0.000000 18.192425 43.759525 0.000000 16.300529 45.722428 0.000000 18.120430 43.727447 0.000000 19.567346 46.168687 0.000000 18.152642 43.694168 0.000000 16.279310 45.639047 0.000000 15.644876 43.274273 0.000000 13.947569 45.169077 0.000000 15.643503 43.276637 0.000000 16.279432 45.641007 0.000000 11.012057 45.666979 0.000000 13.068409 43.008835 0.000000 13.947213 45.165893 0.000000 15.650719 43.267887 0.000000 13.952836 45.158579 0.000000 13.072264 43.002243 0.000000 13.108267 42.956071 0.000000 11.052473 45.614644 0.000000 10.662119 42.544582 0.000000 6.995638 44.990366 0.000000 8.723167 43.948209 0.000000 8.448836 45.812774 0.000000 10.661812 42.542262 0.000000 11.052173 45.612323 0.000000 8.722092 43.956591 0.000000 8.454861 45.822865 0.000000 8.721727 43.957198 0.000000 11.050376 45.614920 0.000000 4.604920 44.914428 0.000000 6.662389 43.040196 0.000000 7.001412 44.947025 0.000000 8.745854 43.934222 0.000000 7.001841 44.948604 0.000000 6.672053 43.040155 0.000000 6.575753 43.060905 0.000000 4.536302 44.954727 0.000000 4.659512 42.408476 0.000000 0.307461 45.049147 0.000000 2.135022 42.666079 0.000000 2.373771 44.902564 0.000000 4.648357 42.392406 0.000000 4.534270 44.939081 0.000000 2.149337 42.743976 0.000000 2.382000 44.978991 0.000000 2.146850 42.742129 0.000000 4.532004 44.936992 0.000000 2.128427 42.668082 0.000000 0.303735 45.053347 0.000000 -0.443801 42.890190 0.000000 -4.475093 45.891205 0.000000 -2.260138 44.159859 0.000000 -1.959981 46.141168 0.000000 -0.462616 42.879365 0.000000 0.288447 45.041301 0.000000 -2.231295 44.113106 0.000000 -1.930655 46.092921 0.000000 -2.234023 44.112101 0.000000 0.285697 45.040357 0.000000 -2.261054 44.160072 0.000000 -4.476340 45.890996 0.000000 -4.527629 43.103056 0.000000 -8.362534 45.415722 0.000000 -6.657110 44.373048 0.000000 -6.801034 46.149878 0.000000 -4.527090 43.158102 0.000000 -4.475339 45.946016 0.000000 -6.643167 44.345251 0.000000 -6.800056 46.141073 0.000000 -6.644759 44.365200 0.000000 -4.466799 45.952149 0.000000 -11.024243 45.703939 0.000000 -8.864660 43.543284 0.000000 -8.356078 45.409692 0.000000 -6.641556 44.361703 0.000000 -8.361714 45.379886 0.000000 -8.865334 43.512134 0.000000 -8.862815 43.541427 0.000000 -11.024474 45.700004 0.000000 -11.182777 42.630904 0.000000 -15.837857 45.432626 0.000000 -13.481240 43.963476 0.000000 -13.530957 45.855262 0.000000 -11.183011 42.644211 0.000000 -11.023879 45.713267 0.000000 -13.403914 43.892451 0.000000 -13.515146 45.819032 0.000000 -13.419501 43.929012 0.000000 -11.056033 45.771283 0.000000 -13.395137 43.911732 0.000000 -15.775755 45.341663 0.000000 -15.600280 42.548894 0.000000 -19.514806 46.192683 0.000000 -18.049512 43.470320 0.000000 -15.763992 45.372255 0.000000 -15.603099 42.548653 0.000000 -15.777452 45.341492 0.000000 -18.069585 43.447533 0.000000 -18.090830 43.465987 0.000000 -19.526987 46.203833 0.000000 -20.344725 43.668481 0.000000 -22.424590 45.060148 0.000000 -20.351479 43.931295 0.000000 -19.711633 46.517276 0.000000 27.964258 42.056730 0.000000 25.342282 43.671845 0.000000 25.756750 41.074189 0.000000 25.679006 41.075564 0.000000 25.322009 43.681740 0.000000 22.573660 41.762971 0.000000 20.418745 43.679605 0.000000 22.353687 41.489386 0.000000 22.365463 44.919025 0.000000 25.135369 43.586973 0.000000 22.453225 45.100069 0.000000 22.385008 41.671088 0.000000 18.149917 43.705959 0.000000 19.580500 41.997472 0.000000 20.381286 43.653887 0.000000 22.349785 41.487083 0.000000 20.387435 43.652780 0.000000 19.599897 41.990026 0.000000 15.650923 43.269904 0.000000 17.501347 41.454857 0.000000 18.157797 43.695075 0.000000 19.588478 41.987417 0.000000 18.158079 43.696054 0.000000 17.501828 41.455773 0.000000 17.506769 41.448988 0.000000 15.656563 43.264257 0.000000 14.943107 40.666139 0.000000 13.078653 42.995052 0.000000 14.943253 40.666699 0.000000 15.656678 43.264825 0.000000 14.973610 40.627542 0.000000 13.109182 42.956032 0.000000 12.286859 40.609185 0.000000 10.662277 42.541424 0.000000 12.286372 40.608851 0.000000 13.107909 42.955974 0.000000 12.303007 40.588722 0.000000 10.677216 42.519870 0.000000 10.288286 40.447133 0.000000 6.630720 43.019208 0.000000 8.541314 41.575921 0.000000 8.715066 43.888406 0.000000 10.287757 40.444426 0.000000 10.676554 42.517188 0.000000 8.544428 41.615991 0.000000 8.734854 43.929298 0.000000 8.547765 41.617854 0.000000 10.679026 42.521095 0.000000 8.482596 41.611874 0.000000 6.576077 43.060538 0.000000 6.172939 40.493530 0.000000 4.659219 42.408305 0.000000 6.172597 40.493031 0.000000 6.575695 43.060046 0.000000 6.169975 40.490709 0.000000 4.654531 42.404348 0.000000 3.841689 40.770634 0.000000 2.146853 42.743161 0.000000 3.826916 40.762162 0.000000 4.646034 42.392737 0.000000 3.824470 40.764480 0.000000 2.144216 42.745321 0.000000 1.982903 39.874410 0.000000 1.961106 39.799633 0.000000 2.131163 42.670039 0.000000 -0.113546 40.843873 0.000000 -0.444352 42.890239 0.000000 -0.117774 40.842881 0.000000 2.127856 42.667914 0.000000 -4.518563 43.105093 0.000000 -2.361731 41.801758 0.000000 -2.252667 44.163566 0.000000 -0.130191 40.839362 0.000000 -0.447109 42.888237 0.000000 -2.334269 41.766423 0.000000 -2.250442 44.122756 0.000000 -2.362628 41.761094 0.000000 -0.480338 42.891061 0.000000 -2.365763 41.804200 0.000000 -4.524028 43.105159 0.000000 -4.591827 40.549649 0.000000 -8.866637 43.511544 0.000000 -6.815857 41.993832 0.000000 -6.642860 44.361117 0.000000 -6.644165 44.341719 0.000000 -6.817266 41.974438 0.000000 -4.526327 43.157716 0.000000 -4.594705 40.600967 0.000000 -4.528740 43.156494 0.000000 -6.818346 41.970640 0.000000 -11.182926 42.624685 0.000000 -9.165567 41.090079 0.000000 -8.863367 43.536235 0.000000 -6.815781 41.992131 0.000000 -
[...]
<PointData Vectors='Velocity Force Displacement'>
<DataArray type='Float32' Name='Velocity' NumberOfComponents='3' format='ascii'>
1.023133 5.024794 0.000000 1.319723 6.404391 0.000000 0.344006 5.892979 0.000000 -0.053743 -0.376626 0.000000 1.652961 0.926922 0.000000 0.089879 1.603763 0.000000 1.669477 2.774345 0.000000 -0.141339 1.666094 0.000000 1.988844 0.714892 0.000000 1.827605 0.309911 0.000000 0.500046 -0.659376 0.000000 1.771856 -0.658452 0.000000 -0.130873 -1.013545 0.000000 1.007793 -0.634495 0.000000 -0.085184 0.172015 0.000000 0.904412 0.124180 0.000000 -0.007816 0.127905 0.000000 0.962510 -0.588182 0.000000 -0.287469 -1.251958 0.000000 -0.146855 -1.208919 0.000000 -0.257850 -1.112568 0.000000 -0.208897 -1.015658 0.000000 -0.214368 -1.018810 0.000000 -0.208897 -1.023553 0.000000 -0.210394 -1.207934 0.000000 -0.135090 -1.164770 0.000000 -0.203905 -1.122836 0.000000 0.310007 1.251134 0.000000 -1.116859 0.082999 0.000000 0.327072 -0.934523 0.000000 -1.467352 0.197411 0.000000 0.463671 1.822900 0.000000 -1.459253 1.791729 0.000000 -2.287611 3.507219 0.000000 -5.107183 1.157006 0.000000 -1.970087 -1.293906 0.000000 -1.791630 -0.007061 0.000000 0.504796 0.007559 0.000000 -1.847987 1.817906 0.000000 -2.223296 1.185798 0.000000 -1.036820 2.231200 0.000000 -2.536195 2.777696 0.000000 -1.019075 6.100555 0.000000 -0.888168 6.280067 0.000000 -1.064736 6.337443 0.000000 8.157849 12.677883 0.000000 6.715073 7.383119 0.000000 9.716805 7.012792 0.000000 3.879125 7.005263 0.000000 4.787017 9.442762 0.000000 2.499405 7.394353 0.000000 1.174373 2.775327 0.000000 2.284502 3.814691 0.000000 1.000070 3.755153 0.000000 2.567764 3.864370 0.000000 2.781914 4.112851 0.000000 2.389698 4.085656 0.000000 2.485774 4.679648 0.000000 1.687900 4.617583 0.000000 2.301808 3.962705 0.000000 0.815696 2.857760 0.000000 0.737766 2.851996 0.000000 0.803109 2.783117 0.000000 1.904765 1.578773 0.000000 1.845696 1.501638 0.000000 1.901082 1.483904 0.000000 1.065801 0.702208 0.000000 1.584691 1.466150 0.000000 0.945693 1.647022 0.000000 1.109805 1.602218 0.000000 0.602637 0.856212 0.000000 1.441088 1.031007 0.000000 1.013245 -0.721110 0.000000 1.602186 -0.169889 0.000000 0.975960 -0.171787 0.000000 1.479749 0.643364 0.000000 1.003770 0.542403 0.000000 1.486349 0.105269 0.000000 0.970820 0.102859 0.000000 1.485697 0.105854 0.000000 1.003056 0.543014 0.000000 0.024285 0.533174 0.000000 -0.067096 0.448041 0.000000 0.022403 0.441976 0.000000 -0.151392 -1.137247 0.000000 -0.168678 -1.135887 0.000000 -0.152602 -1.153976 0.000000 -0.295328 -1.194408 0.000000 -0.272733 -1.188867 0.000000 -0.290036 -1.169514 0.000000 -0.385787 -1.403441 0.000000 -0.248604 -1.370040 0.000000 -0.330135 -1.286087 0.000000 -0.189272 -1.123879 0.000000 -0.267056 -1.168080 0.000000 -0.198071 -1.239140 0.000000 -1.078014 1.866778 0.000000 -2.144383 0.927267 0.000000 -1.021209 0.949548 0.000000 -0.810460 -0.284538 0.000000 -0.711586 -0.263546 0.000000 -0.827187 -0.190956 0.000000 -0.627613 0.686549 0.000000 -1.915517 0.659536 0.000000 -0.629947 -0.333063 0.000000 -1.283383 2.394601 0.000000 -1.727797 1.743685 0.000000 -1.087958 1.452914 0.000000 -1.997363 0.641859 0.000000 -0.952442 1.563178 0.000000 -1.874074 1.981475 0.000000 -0.809930 1.386244 0.000000 -0.420418 1.963248 0.000000 -1.068787 1.936593 0.000000 -2.525234 5.485805 0.000000 -2.287354 5.747874 0.000000 -2.599531 5.773497 0.000000 -1.078617 1.924316 0.000000 -0.718838 1.940656 0.000000 -1.017305 2.445846 0.000000 0.084295 3.276075 0.000000 -2.481832 3.626452 0.000000 -1.343988 1.521268 0.000000 -3.548138 5.301369 0.000000 -3.317191 5.550747 0.000000 -3.541156 5.529165 0.000000 -4.754585 11.615770 0.000000 -6.694671 5.639777 0.000000 -3.391283 6.764313 0.000000 -2.912411 7.425566 0.000000 -3.123524 7.331466 0.000000 -2.812644 7.107036 0.000000 -3.623308 5.558347 0.000000 -3.499353 5.570257 0.000000 -3.646493 5.676362 0.000000 1.437418 4.958680 0.000000 2.329680 6.723040 0.000000 0.682875 6.233835 0.000000 1.280354 2.696816 0.000000 2.217091 2.989700 0.000000 1.318240 3.514615 0.000000 1.321587 3.684633 0.000000 0.531719 2.968037 0.000000 1.497000 2.400916 0.000000 0.881573 2.545923 0.000000 0.973667 2.630145 0.000000 0.853386 2.664114 0.000000 1.019410 2.612164 0.000000 1.091084 2.676295 0.000000 1.001593 2.700306 0.000000 0.864273 2.692257 0.000000 0.935019 2.746987 0.000000 0.877609 2.770376 0.000000 1.012478 2.539789 0.000000 1.045416 2.569108 0.000000 1.007341 2.584226 0.000000 1.721136 1.474474 0.000000 1.882898 1.599766 0.000000 1.695001 1.623793 0.000000 1.463305 0.938398 0.000000 1.594322 1.435833 0.000000 1.254709 1.316751 0.000000 1.702900 1.620328 0.000000 1.880893 1.597722 0.000000 1.784939 1.732693 0.000000 1.668634 1.533441 0.000000 1.601484 1.490776 0.000000 1.628833 1.300809 0.000000 1.535886 -0.331113 0.000000 2.216420 0.415948 0.000000 1.524054 0.539050 0.000000 2.025169 1.354677 0.000000 1.548261 0.534747 0.000000 2.445502 0.379694 0.000000 0.420454 0.868012 0.000000 0.239162 0.672780 0.000000 0.482910 0.684574 0.000000 -0.151283 -1.193046 0.000000 -0.213467 -1.240735 0.000000 -0.155108 -1.246965 0.000000 0.198603 0.550778 0.000000 0.087546 0.544918 0.000000 0.183079 0.441260 0.000000 0.022358 0.442471 0.000000 0.062727 0.436989 0.000000 0.022697 0.482369 0.000000 -0.254411 -1.319948 0.000000 -0.172497 -1.257209 0.000000 -0.246722 -1.231800 0.000000 -0.829577 -0.239452 0.000000 -0.859921 -0.278523 0.000000 -0.825226 -0.283643 0.000000 -0.528773 -1.376504 0.000000 -0.403224 -1.420110 0.000000 -0.457112 -1.273776 0.000000 -0.363053 -1.291780 0.000000 -0.464265 -1.276279 0.000000 -0.416835 -1.405028 0.000000 -0.937881 -0.300844 0.000000 -0.937003 -0.299785 0.000000 -0.938270 -0.299893 0.000000 -0.968991 1.983661 0.000000 -1.296720 1.447615 0.000000 -0.738231 1.492855 0.000000 -0.885795 0.812451 0.000000 -0.742563 0.777386 0.000000 -0.819685 0.910799 0.000000 -1.027220 1.169991 0.000000 -1.567749 1.121329 0.000000 -1.078955 0.491240 0.000000 -0.792349 2.038468 0.000000 -0.950425 1.880470 0.000000 -0.813877 1.843262 0.000000 -0.942520 1.204703 0.000000 -1.028834 1.058882 0.000000 -0.870500 1.016188 0.000000 -0.888537 1.817821 0.000000 -0.825406 1.881041 0.000000 -0.915166 1.885671 0.000000 -1.609817 3.806600 0.000000 -1.879171 3.374348 0.000000 -1.532242 3.383462 0.000000 -0.887338 2.095470 0.000000 -0.824917 2.092236 0.000000 -0.861953 2.140622 0.000000 -1.237196 2.524310 0.000000 -0.964890 2.538090 0.000000 -1.230316 2.878609 0.000000 -0.639229 2.594738 0.000000 -0.623230 2.621371 0.000000 -0.654367 2.619359 0.000000 -0.383556 2.776360 0.000000 -0.297207 2.822837 0.000000 -0.357533 2.895330 0.000000 -0.575547 2.524394 0.000000 -0.726260 2.514985 0.000000 -0.624054 2.391292 0.000000 -0.965188 2.640688 0.000000 -0.511079 2.878896 0.000000 -0.931603 3.014528 0.000000 -2.333601 5.226449 0.000000 -1.126217 7.443709 0.000000 -3.892020 8.128087 0.000000 6.184565 6.694695 0.000000 6.101593 6.559999 0.000000 6.235040 6.581291 0.000000 4.762889 6.563781 0.000000 5.719369 6.694805 0.000000 5.015166 7.703461 0.000000 1.237199 2.995726 0.000000 1.083617 2.860044 0.000000 1.324110 2.859218 0.000000 2.330420 4.988862 0.000000 2.891309 5.983115 0.000000 1.620212 6.008397 0.000000 0.935075 2.603798 0.000000 0.918712 2.590097 0.000000 0.934576 2.582428 0.000000 1.047849 2.958829 0.000000 0.772257 2.709234 0.000000 0.983800 2.609068 0.000000 0.958043 2.530360 0.000000 0.974561 2.542697 0.000000 0.954734 2.543835 0.000000 0.965513 2.580361 0.000000 0.962148 2.576292 0.000000 0.967280 2.574859 0.000000 1.011644 2.464250 0.000000 1.000320 2.452651 0.000000 1.016657 2.448250 0.000000 1.066170 2.498579 0.000000 1.005939 2.450349 0.000000 1.073049 2.431900 0.000000 1.748385 1.563924 0.000000 1.825605 1.625754 0.000000 1.747776 1.653025 0.000000 1.820017 1.640074 0.000000 1.688267 1.529430 0.000000 1.848238 1.473476 0.000000 2.049513 1.220520 0.000000 2.045721 1.217712 0.000000 2.050249 1.216123 0.000000 1.744662 -0.186298 0.000000 1.996892 0.147598 0.000000 1.592762 0.177964 0.000000 2.023058 1.197451 0.000000 2.052653 1.192406 0.000000 2.039458 1.221695 0.000000 1.914674 1.240829 0.000000 2.066162 1.228567 0.000000 2.006965 1.368246 0.000000 0.543045 1.005306 0.000000 0.400773 0.818069 0.000000 0.652876 0.778477 0.000000 0.479666 0.678705 0.000000 0.643815 0.808410 0.000000 0.423808 0.842957 0.000000 0.542416 0.831793 0.000000 0.289502 0.631506 0.000000 0.505420 0.524077 0.000000 0.076398 0.194311 0.000000 0.368958 0.440286 0.000000 0.128668 0.560811 0.000000 0.213834 0.522156 0.000000 0.057945 0.389891 0.000000 0.283884 0.377209 0.000000 -0.268166 -1.338699 0.000000 -0.179581 -1.343931 0.000000 -0.235912 -1.274721 0.000000 -0.246731 -1.231946 0.000000 -0.335465 -1.246167 0.000000 -0.256405 -1.343491 0.000000 -0.846061 -0.251647 0.000000 -0.903494 -0.346232 0.000000 -0.799470 -0.351282 0.000000 -0.529323 -1.303059 0.000000 -0.206076 -1.253020 0.000000 -0.382989 -0.955278 0.000000 -0.780820 -1.097373 0.000000 -0.817889 -1.095615 0.000000 -0.800149 -1.125170 0.000000 -0.925006 -0.322776 0.000000 -0.943753 -0.353373 0.000000 -0.906756 -0.354484 0.000000 -0.970969 1.217643 0.000000 -0.999125 1.153388 0.000000 -0.938788 1.139296 0.000000 -0.930935 0.827103 0.000000 -0.987308 0.832123 0.000000 -0.930440 0.753500 0.000000 -0.925711 0.825394 0.000000 -0.871564 0.797052 0.000000 -0.898435 0.814419 0.000000 -0.872439 1.847108 0.000000 -0.936883 1.762303 0.000000 -0.834443 1.749542 0.000000 -0.956039 1.129788 0.000000 -0.937798 1.152569 0.000000 -0.967269 1.156135 0.000000 -0.912535 1.704067 0.000000 -0.915222 1.700498 0.000000 -0.911069 1.700284 0.000000 -0.939563 2.238209 0.000000 -0.998157 2.126859 0.000000 -0.873185 2.129927 0.000000 -0.865476 2.113140 0.000000 -0.978036 2.110638 0.000000 -0.920972 2.014880 0.000000 -0.917649 1.926710 0.000000 -0.946695 1.928095 0.000000 -0.931051 1.902078 0.000000 -0.874652 2.042727 0.000000 -0.890652 2.011917 0.000000 -0.858197 2.014484 0.000000 -0.872749 2.167313 0.000000 -0.897206 2.165545 0.000000 -0.882706 2.145272 0.000000 -0.649118 2.388291 0.000000 -0.658349 2.386482 0.000000 -0.652652 2.378612 0.000000 -0.644466 2.391875 0.000000 -0.699169 2.381361 0.000000 -0.660340 2.345425 0.000000 -0.541094 2.481281 0.000000 -0.429450 2.531503 0.000000 -0.529252 2.628892 0.000000 -2.659141 4.652831 0.000000 -2.701067 4.579583 0.000000 -2.622451 4.584398 0.000000 -1.069188 3.335146 0.000000 -1.214396 3.271519 0.000000 -1.058215 3.122274 0.000000 -1.947770 3.741997 0.000000 -1.215112 3.795133 0.000000 -1.657750 4.215310 0.000000 -0.929239 2.928509 0.000000 -0.824991 3.109817 0.000000 -1.011518 3.115676 0.000000 -2.814353 5.051655 0.000000 -2.906869 4.876658 0.000000 -2.703947 4.873395 0.000000 8.212745 7.069453 0.000000 6.780271 5.114108 0.000000 8.012156 5.082451 0.000000 2.320145 4.340430 0.000000 2.627231 4.732580 0.000000 2.151840 4.711009 0.000000 3.819417 5.074740 0.000000 3.414059 5.062963 0.000000 3.561699 4.715604 0.000000 2.383504 4.389751 0.000000 2.426021 4.386501 0.000000 2.397930 4.452379 0.000000 2.139238 4.356880 0.000000 2.070099 4.269620 0.000000 2.159052 4.232495 0.000000 1.968352 4.469702 0.000000 1.836223 4.376185 0.000000 1.940374 4.331928 0.000000 1.165720 2.914059 0.000000 1.127499 2.886556 0.000000 1.162495 2.880523 0.000000 0.954274 2.610193 0.000000 0.930991 2.583296 0.000000 0.961855 2.582210 0.000000 1.069183 2.635265 0.000000 0.595036 2.715016 0.000000 0.910490 2.234231 0.000000 0.964153 2.588864 0.000000 1.262190 2.587008 0.000000 1.029083 2.943347 0.000000 1.113072 2.443283 0.000000 1.104615 2.428534 0.000000 1.118537 2.425914 0.000000 1.131943 2.384463 0.000000 1.143941 2.398318 0.000000 1.130253 2.400936 0.000000 0.830877 1.537878 0.000000 0.725753 1.352548 0.000000 0.944925 1.401776 0.000000 0.887415 1.303614 0.000000 0.743354 1.271330 0.000000 0.848265 1.189137 0.000000 0.746338 1.103118 0.000000 0.863548 1.180198 0.000000 0.744516 1.273471 0.000000 0.804363 1.191992 0.000000 0.714513 1.133057 0.000000 0.826778 1.080489 0.000000 0.717621 1.033495 0.000000 0.826802 1.080476 0.000000 0.710399 1.134797 0.000000 0.526335 0.700981 0.000000 0.672234 0.983549 0.000000 0.397930 0.965746 0.000000 0.826700 1.080880 0.000000 0.711768 1.031518 0.000000 0.776477 0.947021 0.000000 0.643255 1.005905 0.000000 0.671198 1.007603 0.000000 0.656933 1.026272 0.000000 0.613137 0.892430 0.000000 0.516024 0.705506 0.000000 0.703241 0.751362 0.000000 0.492997 0.310721 0.000000 0.581732 0.436931 0.000000 0.441706 0.416547 0.000000 0.598841 0.717119 0.000000 0.378319 0.663255 0.000000 0.570836 0.488522 0.000000 0.352357 0.455521 0.000000 0.570354 0.488942 0.000000 0.377840 0.663676 0.000000 0.196150 0.659124 0.000000 0.048720 0.448111 0.000000 0.265120 0.418202 0.000000 -0.309019 -1.337428 0.000000 -0.191871 -1.354247 0.000000 -0.242762 -1.259374 0.000000 -0.247990 -1.260086 0.000000 -0.324758 -1.268545 0.000000 -0.288227 -1.338272 0.000000 -0.895554 -0.396192 0.000000 -0.852302 -0.319489 0.000000 -0.931353 -0.325885 0.000000 -0.346696 -1.198536 0.000000 -0.347828 -1.198658 0.000000 -0.346853 -1.199751 0.000000 -0.379668 -0.958548 0.000000 -0.795857 -0.984622 0.000000 -0.525895 -1.305656 0.000000 -0.867766 -0.340359 0.000000 -0.897677 -0.395682 0.000000 -0.841779 -0.397803 0.000000 -0.935532 1.159818 0.000000 -0.951501 1.141666 0.000000 -0.928199 1.137914 0.000000 -0.841804 0.879625 0.000000 -0.980299 0.878058 0.000000 -0.899617 0.733908 0.000000 -0.996364 0.804674 0.000000 -0.896908 0.797674 0.000000 -0.955911 0.809386 0.000000 -0.977822 1.394989 0.000000 -0.887950 1.502556 0.000000 -1.037892 1.540542 0.000000 -0.968393 1.152006 0.000000 -0.962027 1.158684 0.000000 -0.969809 1.160522 0.000000 -0.890169 1.487089 0.000000 -0.977897 1.382097 0.000000 -0.874686 1.383845 0.000000 -0.980987 1.820155 0.000000 -0.929407 1.906442 0.000000 -1.027597 1.897914 0.000000 -1.011696 1.734586 0.000000 -0.827708 1.750840 0.000000 -0.934537 1.876600 0.000000 -0.909478 1.449576 0.000000 -0.967487 1.448613 0.000000 -0.909857 1.380866 0.000000 -0.929171 1.906820 0.000000 -0.981139 1.819888 0.000000 -0.894877 1.811997 0.000000 -0.870020 2.108278 0.000000 -0.957636 2.093570 0.000000 -0.913916 2.011085 0.000000 -0.916040 2.015995 0.000000 -0.963650 2.020353 0.000000 -0.943333 1.982152 0.000000 -0.709954 2.639592 0.000000 -0.804436 2.542076 0.000000 -0.705791 2.535330 0.000000 -0.955951 2.095080 0.000000 -0.913976 2.102185 0.000000 -0.948917 2.147213 0.000000 -0.661289 2.361609 0.000000 -0.674936 2.362482 0.000000 -0.665701 2.350563 0.000000 -0.972466 3.016042 0.000000 -1.124344 2.822385 0.000000 -0.862126 2.764573 0.000000 -0.731880 2.467384 0.000000 -0.614672 2.588527 0.000000 -0.772714 2.623427 0.000000 -1.233188 2.666701 0.000000 -1.032982 2.918491 0.000000 -1.319869 2.960851 0.000000 -3.099243 5.848464 0.000000 -3.154724 5.680603 0.000000 -2.981852 5.682759 0.000000 -1.871730 3.926239 0.000000 -1.238446 3.828673 0.000000 -1.533260 4.439585 0.000000 -2.746385 4.800826 0.000000 -2.737572 4.801485 0.000000 -2.741799 4.809411 0.000000 -3.865052 4.904508 0.000000 -4.234833 5.374451 0.000000 -4.245081 4.799850 0.000000 -3.691226 4.482625 0.000000 -3.354410 5.434831 0.000000 -4.093607 5.238787 0.000000 4.153640 6.396656 0.000000 2.862858 4.875948 0.000000 4.296065 4.601604 0.000000 0.957296 4.056767 0.000000 1.280700 4.348991 0.000000 1.030193 4.393816 0.000000 2.538914 4.632564 0.000000 2.676399 4.607490 0.000000 2.567562 4.834171 0.000000 2.712959 4.448159 0.000000 2.623552 4.468276 0.000000 2.678535 4.353295 0.000000 0.937209 3.994894 0.000000 0.978583 4.044586 0.000000 0.926052 4.065439 0.000000 1.227994 4.283832 0.000000 0.970548 4.051104 0.000000 1.257457 3.938969 0.000000 0.840516 3.355435 0.000000 1.187863 3.763641 0.000000 0.767327 3.750688 0.000000 0.843496 2.530539 0.000000 0.820371 2.529522 0.000000 0.837482 2.510177 0.000000 0.875964 2.638831 0.000000 0.879288 2.639815 0.000000 0.876392 2.643012 0.000000 0.951176 1.867894 0.000000 1.044773 1.895817 0.000000 0.984881 1.960480 0.000000 0.882674 1.956652 0.000000 0.956834 1.985750 0.000000 0.913219 2.032280 0.000000 0.960810 1.404837 0.000000 0.994910 1.506775 0.000000 0.907405 1.468871 0.000000 1.020408 1.895267 0.000000 0.634591 1.742139 0.000000 1.055486 1.487994 0.000000 0.779139 1.721665 0.000000 0.967231 1.803359 0.000000 0.757105 1.931229 0.000000 0.924432 1.511380 0.000000 0.858048 1.312933 0.000000 1.007218 1.353539 0.000000 0.833621 1.074354 0.000000 0.896279 1.142612 0.000000 0.819546 1.143309 0.000000 0.929700 1.304991 0.000000 0.850504 1.283574 0.000000 0.924777 1.202195 0.000000 0.817941 1.198412 0.000000 0.925835 1.198557 0.000000 0.848128 1.283513 0.000000 0.895037 1.140905 0.000000 0.833591 1.074251 0.000000 0.891918 1.073926 0.000000 0.717644 0.762194 0.000000 0.796378 0.871918 0.000000 0.658584 0.855190 0.000000 0.888921 1.069193 0.000000 0.833840 1.069358 0.000000 0.884530 1.009564 0.000000 0.681896 0.966420 0.000000 0.848608 0.986573 0.000000 0.739055 1.118928 0.000000 0.715241 0.759679 0.000000 0.717635 0.762512 0.000000 0.713975 0.763593 0.000000 0.471213 0.386082 0.000000 0.625420 0.477205 0.000000 0.489210 0.529461 0.000000 0.487587 0.744568 0.000000 0.305833 0.634216 0.000000 0.465397 0.564052 0.000000 0.275082 0.420757 0.000000 0.434062 0.561023 0.000000 0.206104 0.661541 0.000000 0.379711 0.622422 0.000000 0.221967 0.483138 0.000000 0.394805 0.440435 0.000000 -0.336698 -1.226015 0.000000 -0.315281 -1.213172 0.000000 -0.333887 -1.205394 0.000000 -0.363712 -1.327858 0.000000 -0.300645 -1.341516 0.000000 -0.327549 -1.256113 0.000000 -0.269839 -1.291584 0.000000 -0.332568 -1.266149 0.000000 -0.309168 -1.340658 0.000000 -0.603415 -0.838815 0.000000 -0.591942 -0.821243 0.000000 -0.601541 -0.819998 0.000000 -0.783352 -0.460253 0.000000 -0.727375 -0.367185 0.000000 -0.842945 -0.322493 0.000000 -0.727505 -0.367431 0.000000 -0.783073 -0.457841 0.000000 -0.691292 -0.443261 0.000000 -0.875466 0.727755 0.000000 -1.022964 0.703934 0.000000 -0.882730 0.559467 0.000000 -0.913649 0.697626 0.000000 -0.725915 0.752697 0.000000 -0.843600 0.874336 0.000000 -0.846749 1.167937 0.000000 -0.966208 1.132863 0.000000 -0.878512 1.069325 0.000000 -0.965586 1.090767 0.000000 -0.933634 1.114149 0.000000 -0.972524 1.142540 0.000000 -0.951555 1.335463 0.000000 -0.899233 1.397304 0.000000 -0.951193 1.388492 0.000000 -0.932843 1.326928 0.000000 -0.842137 1.342360 0.000000 -0.944480 1.405130 0.000000 -0.974879 1.163927 0.000000 -1.013062 1.136109 0.000000 -0.965306 1.106772 0.000000 -0.828194 1.750640 0.000000 -0.811786 1.766180 0.000000 -0.835965 1.772196 0.000000 -0.895492 1.377298 0.000000 -0.952229 1.310226 0.000000 -0.863097 1.288169 0.000000 -0.827472 1.774647 0.000000 -0.844445 1.758573 0.000000 -0.826941 1.753351 0.000000 -0.937127 2.154241 0.000000 -1.009549 2.099329 0.000000 -0.947604 2.076814 0.000000 -0.942722 1.981063 0.000000 -0.951492 1.984247 0.000000 -0.948652 1.973728 0.000000 -0.990419 1.854169 0.000000 -0.853499 1.812857 0.000000 -0.896834 1.974693 0.000000 -0.944639 2.562752 0.000000 -1.012543 2.495802 0.000000 -0.918771 2.464419 0.000000 -1.006493 2.096259 0.000000 -0.941386 2.145642 0.000000 -1.025035 2.173568 0.000000 -0.882973 2.600648 0.000000 -0.945145 2.539624 0.000000 -0.863338 2.513622 0.000000 -0.848738 3.110409 0.000000 -1.142670 2.851141 0.000000 -0.733097 2.718753 0.000000 -1.189389 2.767107 0.000000 -0.962123 2.968049 0.000000 -1.178602 3.022813 0.000000 -2.203299 4.447768 0.000000 -1.952523 4.878290 0.000000 -2.457650 4.889528 0.000000 -1.121088 3.277760 0.000000 -1.499406 3.293461 0.000000 -1.352162 2.919562 0.000000 -1.271610 3.094457 0.000000 -0.985583 3.022263 0.000000 -1.115993 3.354846 0.000000 -1.939275 4.972473 0.000000 -2.221265 4.488571 0.000000 -1.731349 4.401320 0.000000 -2.463536 4.309461 0.000000 -2.079658 4.824333 0.000000 -2.463806 4.894895 0.000000 -5.807025 4.645835 0.000000 -5.565460 4.382755 0.000000 -5.506347 4.700353 0.000000 -4.247056 4.999904 0.000000 -4.192616 5.071207 0.000000 -4.264347 5.058766 0.000000 7.0